
     Program PWSCF v.4.3        starts on  4Sep2018 at 18:38:31 

     This program is part of the open-source Quantum ESPRESSO suite
     for quantum simulation of materials; please cite
         "P. Giannozzi et al., J. Phys.:Condens. Matter 21 395502 (2009);
          URL http://www.quantum-espresso.org", 
     in publications or presentations arising from this work. More details at
     http://www.quantum-espresso.org/wiki/index.php/Citing_Quantum-ESPRESSO

     Parallel version (MPI), running on     1 processors

     Current dimensions of program PWSCF are:
     Max number of different atomic species (ntypx) = **
     Max number of k-points (npk) =  40000
     Max angular momentum in pseudopotentials (lmaxx) =  3
     Waiting for input...

     Subspace diagonalization in iterative solution of the eigenvalue problem:
     a serial algorithm will be used

 
   Stick Mesh
   ----------
   nst =  9681,  nstw =  1209, nsts =  4835
               n.st   n.stw   n.sts    n.g    n.gw   n.gs
   min        9681    1209    4835  647433   28595  228945
   max        9681    1209    4835  647433   28595  228945
       9681    1209    4835  647433   28595  228945
 


     bravais-lattice index     =           14
     lattice parameter (a_0)   =      24.2289  a.u.
     unit-cell volume          =   13554.2397 (a.u.)^3
     number of atoms/cell      =            1
     number of atomic types    =            1
     number of electrons       =         6.00
     number of Kohn-Sham states=            7
     kinetic-energy cutoff     =      25.0000  Ry
     charge density cutoff     =     200.0000  Ry
     convergence threshold     =      1.0E-08
     mixing beta               =       0.1000
     number of iterations used =            8  local-TF  mixing
     Exchange-correlation      =  SLA  PW   PBE  PBE (1434)
     EXX-fraction              =        0.00

     celldm(1)=  24.228935  celldm(2)=   1.035573  celldm(3)=   0.920219
     celldm(4)=   0.000000  celldm(5)=   0.000000  celldm(6)=   0.000000

     crystal axes: (cart. coord. in units of a_0)
               a(1) = (   1.000000   0.000000   0.000000 )  
               a(2) = (   0.000000   1.035573   0.000000 )  
               a(3) = (   0.000000   0.000000   0.920219 )  

     reciprocal axes: (cart. coord. in units 2 pi/a_0)
               b(1) = (  1.000000  0.000000  0.000000 )  
               b(2) = (  0.000000  0.965649  0.000000 )  
               b(3) = (  0.000000  0.000000  1.086697 )  


     PseudoPot. # 1 for O  read from file O.pbe-van_bm.UPF
     MD5 check sum: ca2828d9fb1f294809e918903b7648d1
     Pseudo is Ultrasoft, Zval =  6.0
     Generated by new atomic code, or converted to UPF format
     Using radial grid of  737 points,  4 beta functions with: 
                l(1) =   0
                l(2) =   0
                l(3) =   1
                l(4) =   1
     Q(r) pseudized with  8 coefficients,  rinner =    0.800   0.800   0.800


     atomic species   valence    mass     pseudopotential
        O              6.00    15.99900     O ( 1.00)

      8 Sym.Ops. (with inversion)


   Cartesian axes

     site n.     atom                  positions (a_0 units)
         1           O   tau(  1) = (   0.0000000   0.0000000   0.0000000  )

     number of k points=     1  Fermi-Dirac smearing, width (Ry)=  0.0019
                       cart. coord. in units 2pi/a_0
        k(    1) = (   0.0000000   0.0000000   0.0000000), wk =   2.0000000

     G cutoff = 2973.9858  ( 647433 G-vectors)     FFT grid: (120,120,108)
     G cutoff = 1486.9929  ( 228945 G-vectors)  smooth grid: ( 80, 80, 72)

     Largest allocated arrays     est. size (Mb)     dimensions
        Kohn-Sham Wavefunctions         3.05 Mb     (  28595,   7)
        NL pseudopotentials             3.49 Mb     (  28595,   8)
        Each V/rho on FFT grid         23.73 Mb     (1555200)
        Each G-vector array             4.94 Mb     ( 647433)
        G-vector shells                 0.64 Mb     (  84369)
     Largest temporary arrays     est. size (Mb)     dimensions
        Auxiliary wavefunctions        12.22 Mb     (  28595,  28)
        Each subspace H/S matrix        0.01 Mb     (     28,  28)
        Each <psi_i|beta_j> matrix      0.00 Mb     (      8,   7)
        Arrays for rho mixing         189.84 Mb     (1555200,   8)

     Initial potential from superposition of free atoms
     Check: negative starting charge=   -0.014446

     starting charge    6.00000, renormalised to    6.00000

     negative rho (up, down):  0.144E-01 0.000E+00
     Starting wfc are    4 atomic +    3 random wfc

     total cpu time spent up to now is      3.86 secs

     per-process dynamical memory:   296.1 Mb

     Self-consistent Calculation

     iteration #  1     ecut=    25.00 Ry     beta=0.10
     Davidson diagonalization with overlap
     ethr =  1.00E-02,  avg # of iterations =  9.0

     Threshold (ethr) on eigenvalues was too large:
     Diagonalizing with lowered threshold

     Davidson diagonalization with overlap
     ethr =  1.20E-05,  avg # of iterations = 17.0

     negative rho (up, down):  0.992E-02 0.000E+00

     total cpu time spent up to now is     18.59 secs

     total energy              =     -31.52903435 Ry
     Harris-Foulkes estimate   =     -31.52915551 Ry
     estimated scf accuracy    <       0.00110155 Ry

     iteration #  2     ecut=    25.00 Ry     beta=0.10
     Davidson diagonalization with overlap
     ethr =  1.84E-05,  avg # of iterations =  1.0

     negative rho (up, down):  0.109E-01 0.000E+00

     total cpu time spent up to now is     29.55 secs

     total energy              =     -31.52866035 Ry
     Harris-Foulkes estimate   =     -31.52903738 Ry
     estimated scf accuracy    <       0.00087399 Ry

     iteration #  3     ecut=    25.00 Ry     beta=0.10
     Davidson diagonalization with overlap
     ethr =  1.46E-05,  avg # of iterations =  2.0

     negative rho (up, down):  0.101E-01 0.000E+00

     total cpu time spent up to now is     40.89 secs

     total energy              =     -31.52882585 Ry
     Harris-Foulkes estimate   =     -31.52877325 Ry
     estimated scf accuracy    <       0.00003737 Ry

     iteration #  4     ecut=    25.00 Ry     beta=0.10
     Davidson diagonalization with overlap
     ethr =  6.23E-07,  avg # of iterations =  9.0

     negative rho (up, down):  0.914E-02 0.000E+00

     total cpu time spent up to now is     51.39 secs

     total energy              =     -31.52910890 Ry
     Harris-Foulkes estimate   =     -31.52882977 Ry
     estimated scf accuracy    <       0.00000857 Ry

     iteration #  5     ecut=    25.00 Ry     beta=0.10
     Davidson diagonalization with overlap
     ethr =  1.43E-07,  avg # of iterations =  1.0

     negative rho (up, down):  0.964E-02 0.000E+00

     total cpu time spent up to now is     61.61 secs

     total energy              =     -31.52877693 Ry
     Harris-Foulkes estimate   =     -31.52910934 Ry
     estimated scf accuracy    <       0.00000783 Ry

     iteration #  6     ecut=    25.00 Ry     beta=0.10
     Davidson diagonalization with overlap
     ethr =  1.30E-07,  avg # of iterations =  1.0

     negative rho (up, down):  0.104E-01 0.000E+00

     total cpu time spent up to now is     70.80 secs

     total energy              =     -31.52859584 Ry
     Harris-Foulkes estimate   =     -31.52877729 Ry
     estimated scf accuracy    <       0.00000901 Ry

     iteration #  7     ecut=    25.00 Ry     beta=0.10
     Davidson diagonalization with overlap
     ethr =  1.30E-07,  avg # of iterations =  1.0

     negative rho (up, down):  0.116E-01 0.000E+00

     total cpu time spent up to now is     88.48 secs

     total energy              =     -31.52853105 Ry
     Harris-Foulkes estimate   =     -31.52859733 Ry
     estimated scf accuracy    <       0.00002769 Ry

     iteration #  8     ecut=    25.00 Ry     beta=0.10
     Davidson diagonalization with overlap
     ethr =  1.30E-07,  avg # of iterations =  1.0

     negative rho (up, down):  0.122E-01 0.000E+00

     total cpu time spent up to now is     96.37 secs

     total energy              =     -31.52874888 Ry
     Harris-Foulkes estimate   =     -31.52853143 Ry
     estimated scf accuracy    <       0.00000739 Ry

     iteration #  9     ecut=    25.00 Ry     beta=0.10
     Davidson diagonalization with overlap
     ethr =  1.23E-07,  avg # of iterations =  2.0

     negative rho (up, down):  0.144E-01 0.000E+00

     total cpu time spent up to now is    106.17 secs

     total energy              =     -31.52874489 Ry
     Harris-Foulkes estimate   =     -31.52875089 Ry
     estimated scf accuracy    <       0.00002515 Ry

     iteration # 10     ecut=    25.00 Ry     beta=0.10
     Davidson diagonalization with overlap
     ethr =  1.23E-07,  avg # of iterations =  3.0

     negative rho (up, down):  0.158E-01 0.000E+00

     total cpu time spent up to now is    114.84 secs

     total energy              =     -31.52867925 Ry
     Harris-Foulkes estimate   =     -31.52874716 Ry
     estimated scf accuracy    <       0.00000991 Ry

     iteration # 11     ecut=    25.00 Ry     beta=0.10
     Davidson diagonalization with overlap
     ethr =  1.23E-07,  avg # of iterations =  1.0

     negative rho (up, down):  0.173E-01 0.000E+00

     total cpu time spent up to now is    124.47 secs

     total energy              =     -31.52861609 Ry
     Harris-Foulkes estimate   =     -31.52867963 Ry
     estimated scf accuracy    <       0.00000693 Ry

     iteration # 12     ecut=    25.00 Ry     beta=0.10
     Davidson diagonalization with overlap
     ethr =  1.15E-07,  avg # of iterations =  2.0

     negative rho (up, down):  0.187E-01 0.000E+00

     total cpu time spent up to now is    137.62 secs

     total energy              =     -31.52858008 Ry
     Harris-Foulkes estimate   =     -31.52861712 Ry
     estimated scf accuracy    <       0.00000254 Ry

     iteration # 13     ecut=    25.00 Ry     beta=0.10
     Davidson diagonalization with overlap
     ethr =  4.24E-08,  avg # of iterations =  1.0

     negative rho (up, down):  0.200E-01 0.000E+00

     total cpu time spent up to now is    147.20 secs

     total energy              =     -31.52855743 Ry
     Harris-Foulkes estimate   =     -31.52858018 Ry
     estimated scf accuracy    <       0.00000017 Ry

     iteration # 14     ecut=    25.00 Ry     beta=0.10
     Davidson diagonalization with overlap
     ethr =  2.81E-09,  avg # of iterations =  2.0

     negative rho (up, down):  0.212E-01 0.000E+00

     total cpu time spent up to now is    157.20 secs

     total energy              =     -31.52854320 Ry
     Harris-Foulkes estimate   =     -31.52855757 Ry
     estimated scf accuracy    <       0.00000370 Ry

     iteration # 15     ecut=    25.00 Ry     beta=0.10
     Davidson diagonalization with overlap
     ethr =  2.81E-09,  avg # of iterations =  1.0

     negative rho (up, down):  0.223E-01 0.000E+00

     total cpu time spent up to now is    170.96 secs

     total energy              =     -31.52853493 Ry
     Harris-Foulkes estimate   =     -31.52854320 Ry
     estimated scf accuracy    <       0.00000332 Ry

     iteration # 16     ecut=    25.00 Ry     beta=0.10
     Davidson diagonalization with overlap
     ethr =  2.81E-09,  avg # of iterations =  1.0

     negative rho (up, down):  0.233E-01 0.000E+00

     total cpu time spent up to now is    180.62 secs

     total energy              =     -31.52852963 Ry
     Harris-Foulkes estimate   =     -31.52853494 Ry
     estimated scf accuracy    <       0.00000152 Ry

     iteration # 17     ecut=    25.00 Ry     beta=0.10
     Davidson diagonalization with overlap
     ethr =  2.81E-09,  avg # of iterations =  1.0

     negative rho (up, down):  0.242E-01 0.000E+00

     total cpu time spent up to now is    191.12 secs

     total energy              =     -31.52852699 Ry
     Harris-Foulkes estimate   =     -31.52852972 Ry
     estimated scf accuracy    <       0.00000057 Ry

     iteration # 18     ecut=    25.00 Ry     beta=0.10
     Davidson diagonalization with overlap
     ethr =  2.81E-09,  avg # of iterations =  2.0

     negative rho (up, down):  0.250E-01 0.000E+00

     total cpu time spent up to now is    199.76 secs

     total energy              =     -31.52852617 Ry
     Harris-Foulkes estimate   =     -31.52852703 Ry
     estimated scf accuracy    <       0.00000009 Ry

     iteration # 19     ecut=    25.00 Ry     beta=0.10
     Davidson diagonalization with overlap
     ethr =  1.52E-09,  avg # of iterations =  1.0

     negative rho (up, down):  0.257E-01 0.000E+00

     total cpu time spent up to now is    212.08 secs

     total energy              =     -31.52852627 Ry
     Harris-Foulkes estimate   =     -31.52852617 Ry
     estimated scf accuracy    <       0.00000008 Ry

     iteration # 20     ecut=    25.00 Ry     beta=0.10
     Davidson diagonalization with overlap
     ethr =  1.40E-09,  avg # of iterations =  1.0

     negative rho (up, down):  0.324E-01 0.000E+00

     total cpu time spent up to now is    214.54 secs

     End of self-consistent calculation

          k = 0.0000 0.0000 0.0000 ( 28595 PWs)   bands (ev):

   -24.0512  -8.9661  -8.9661  -8.9660  -0.7372   0.0798   0.1510

     the Fermi energy is    -8.9481 ev

!    total energy              =     -31.52852901 Ry
     Harris-Foulkes estimate   =     -31.52852628 Ry
     estimated scf accuracy    <          2.5E-09 Ry

     The total energy is the sum of the following terms:

     one-electron contribution =     -43.78397836 Ry
     hartree contribution      =      22.99228366 Ry
     xc contribution           =      -6.46158006 Ry
     ewald contribution        =      -4.26799798 Ry
     smearing contrib. (-TS)   =      -0.00725626 Ry

     convergence has been achieved in  20 iterations
 forces --- starting time for forces:
     forces       :      0.00s CPU      0.00s WALL (       1 calls)

     Forces acting on atoms (Ry/au):

 forces --- nonlocal contribution:
     forces       :      0.57s CPU      0.60s WALL (       2 calls)
 forces --- local contribution:
     forces       :      0.63s CPU      0.66s WALL (       3 calls)
 forces --- NLCC contribution:
     forces       :      0.63s CPU      0.66s WALL (       4 calls)
 forces --- Hubbard contribution:
     forces       :      0.63s CPU      0.66s WALL (       5 calls)
 forces --- ionic contribution:
     forces       :      0.64s CPU      0.68s WALL (       6 calls)
 forces --- SCF contribution:
     forces       :      1.16s CPU      1.20s WALL (       7 calls)
     atom   1 type  1   force =     0.00000000    0.00000000    0.00000000

     Total force =     0.000000     Total SCF correction =     0.000000


     entering subroutine stress ...

          total   stress  (Ry/bohr**3)                   (kbar)     P=   -1.48
  -0.00000998   0.00000000   0.00000000         -1.47      0.00      0.00
   0.00000000  -0.00001005   0.00000000          0.00     -1.48      0.00
   0.00000000   0.00000000  -0.00001007          0.00      0.00     -1.48


     Writing output data file atom.O-GS.save
 
     init_run     :      3.62s CPU      3.79s WALL (       1 calls)
     electrons    :    207.09s CPU    210.68s WALL (       1 calls)
     forces       :      1.16s CPU      1.20s WALL (       8 calls)
     stress       :      3.52s CPU      3.65s WALL (       1 calls)

     Called by init_run:
     wfcinit      :      0.17s CPU      0.17s WALL (       1 calls)
     potinit      :      1.97s CPU      2.04s WALL (       1 calls)

     Called by electrons:
     c_bands      :      9.57s CPU      9.60s WALL (      21 calls)
     sum_band     :     12.69s CPU     13.30s WALL (      21 calls)
     v_of_rho     :     16.47s CPU     17.35s WALL (      21 calls)
     newd         :     11.58s CPU     12.12s WALL (      21 calls)
     mix_rho      :    154.92s CPU    155.30s WALL (      21 calls)

     Called by c_bands:
     init_us_2    :      0.18s CPU      0.18s WALL (      43 calls)
     cegterg      :      9.33s CPU      9.36s WALL (      21 calls)

     Called by *egterg:
     h_psi        :      8.84s CPU      8.85s WALL (      82 calls)
     s_psi        :      0.05s CPU      0.05s WALL (      82 calls)
     g_psi        :      0.05s CPU      0.05s WALL (      60 calls)
     cdiaghg      :      0.01s CPU      0.01s WALL (      80 calls)

     Called by h_psi:
     add_vuspsi   :      0.06s CPU      0.06s WALL (      82 calls)

     General routines
     calbec       :      0.09s CPU      0.09s WALL (     105 calls)
     fft          :     14.56s CPU     14.90s WALL (     344 calls)
     ffts         :     85.03s CPU     85.04s WALL (    6497 calls)
     fftw         :      9.27s CPU      9.28s WALL (     935 calls)
     interpolate  :      2.82s CPU      3.13s WALL (      42 calls)
     davcio       :      0.00s CPU      0.04s WALL (      21 calls)
 
     Parallel routines
 
     PWSCF        :  3m35.66s CPU     3m39.81s WALL

 
   This run was terminated on:  18:42:11   4Sep2018            

=------------------------------------------------------------------------------=
   JOB DONE.
=------------------------------------------------------------------------------=
