
     Program PWSCF v.4.3        starts on  4Sep2018 at 18:42:13 

     This program is part of the open-source Quantum ESPRESSO suite
     for quantum simulation of materials; please cite
         "P. Giannozzi et al., J. Phys.:Condens. Matter 21 395502 (2009);
          URL http://www.quantum-espresso.org", 
     in publications or presentations arising from this work. More details at
     http://www.quantum-espresso.org/wiki/index.php/Citing_Quantum-ESPRESSO

     Parallel version (MPI), running on     1 processors

     Current dimensions of program PWSCF are:
     Max number of different atomic species (ntypx) = **
     Max number of k-points (npk) =  40000
     Max angular momentum in pseudopotentials (lmaxx) =  3
     Waiting for input...

     Subspace diagonalization in iterative solution of the eigenvalue problem:
     a serial algorithm will be used

 
   Stick Mesh
   ----------
   nst =  9681,  nstw =  1209, nsts =  4835
               n.st   n.stw   n.sts    n.g    n.gw   n.gs
   min        9681    1209    4835  647433   28595  228945
   max        9681    1209    4835  647433   28595  228945
       9681    1209    4835  647433   28595  228945
 


     bravais-lattice index     =           14
     lattice parameter (a_0)   =      24.2289  a.u.
     unit-cell volume          =   13554.2397 (a.u.)^3
     number of atoms/cell      =            1
     number of atomic types    =            1
     number of electrons       =         7.00
     number of Kohn-Sham states=            7
     kinetic-energy cutoff     =      25.0000  Ry
     charge density cutoff     =     200.0000  Ry
     convergence threshold     =      1.0E-08
     mixing beta               =       0.1000
     number of iterations used =            8  local-TF  mixing
     Exchange-correlation      = SLA  PW   PBE  PBE (1434)
     EXX-fraction              =        0.00

     celldm(1)=  24.228935  celldm(2)=   1.035573  celldm(3)=   0.920219
     celldm(4)=   0.000000  celldm(5)=   0.000000  celldm(6)=   0.000000

     crystal axes: (cart. coord. in units of a_0)
               a(1) = (   1.000000   0.000000   0.000000 )  
               a(2) = (   0.000000   1.035573   0.000000 )  
               a(3) = (   0.000000   0.000000   0.920219 )  

     reciprocal axes: (cart. coord. in units 2 pi/a_0)
               b(1) = (  1.000000  0.000000  0.000000 )  
               b(2) = (  0.000000  0.965649  0.000000 )  
               b(3) = (  0.000000  0.000000  1.086697 )  


     PseudoPot. # 1 for ox read from file O.pbe-van-dgp-1s1.UPF
     MD5 check sum: 2083901d62884ac3a15d661bda1575b3
     Pseudo is Ultrasoft, Zval =  7.0
     Generated by new atomic code, or converted to UPF format
     Using radial grid of  737 points,  4 beta functions with: 
                l(1) =   0
                l(2) =   0
                l(3) =   1
                l(4) =   1
     Q(r) pseudized with  8 coefficients,  rinner =    0.800   0.800   0.800


     atomic species   valence    mass     pseudopotential
        OX             7.00    15.99900     ox( 1.00)

      8 Sym.Ops. (with inversion)


   Cartesian axes

     site n.     atom                  positions (a_0 units)
         1           OX  tau(  1) = (   0.0000000   0.0000000   0.0000000  )

     number of k points=     1  Fermi-Dirac smearing, width (Ry)=  0.0019
                       cart. coord. in units 2pi/a_0
        k(    1) = (   0.0000000   0.0000000   0.0000000), wk =   2.0000000

     G cutoff = 2973.9858  ( 647433 G-vectors)     FFT grid: (120,120,108)
     G cutoff = 1486.9929  ( 228945 G-vectors)  smooth grid: ( 80, 80, 72)

     Largest allocated arrays     est. size (Mb)     dimensions
        Kohn-Sham Wavefunctions         3.05 Mb     (  28595,   7)
        NL pseudopotentials             3.49 Mb     (  28595,   8)
        Each V/rho on FFT grid         23.73 Mb     (1555200)
        Each G-vector array             4.94 Mb     ( 647433)
        G-vector shells                 0.64 Mb     (  84369)
     Largest temporary arrays     est. size (Mb)     dimensions
        Auxiliary wavefunctions        12.22 Mb     (  28595,  28)
        Each subspace H/S matrix        0.01 Mb     (     28,  28)
        Each <psi_i|beta_j> matrix      0.00 Mb     (      8,   7)
        Arrays for rho mixing         189.84 Mb     (1555200,   8)

     Initial potential from superposition of free atoms
     Check: negative starting charge=   -0.001995

     starting charge    6.00000, renormalised to    7.00000

     negative rho (up, down):  0.233E-02 0.000E+00
     Starting wfc are    4 atomic +    3 random wfc

     total cpu time spent up to now is      3.56 secs

     per-process dynamical memory:   296.1 Mb

     Self-consistent Calculation

     iteration #  1     ecut=    25.00 Ry     beta=0.10
     Davidson diagonalization with overlap
     ethr =  1.00E-02,  avg # of iterations =  8.0

     negative rho (up, down):  0.217E-01 0.000E+00

     total cpu time spent up to now is     13.84 secs

     total energy              =     -47.52103870 Ry
     Harris-Foulkes estimate   =     -47.58855974 Ry
     estimated scf accuracy    <       0.91611510 Ry

     iteration #  2     ecut=    25.00 Ry     beta=0.10
     Davidson diagonalization with overlap
     ethr =  1.00E-02,  avg # of iterations =  1.0

     negative rho (up, down):  0.184E+00 0.000E+00

     total cpu time spent up to now is     25.70 secs

     total energy              =     -47.17575306 Ry
     Harris-Foulkes estimate   =     -47.52375887 Ry
     estimated scf accuracy    <       0.71039068 Ry

     iteration #  3     ecut=    25.00 Ry     beta=0.10
     Davidson diagonalization with overlap
     ethr =  1.00E-02,  avg # of iterations =  2.0

     negative rho (up, down):  0.152E+00 0.000E+00

     total cpu time spent up to now is     36.49 secs

     total energy              =     -47.31021982 Ry
     Harris-Foulkes estimate   =     -47.31413046 Ry
     estimated scf accuracy    <       0.01406344 Ry

     iteration #  4     ecut=    25.00 Ry     beta=0.10
     Davidson diagonalization with overlap
     ethr =  2.01E-04,  avg # of iterations =  4.0

     negative rho (up, down):  0.125E+00 0.000E+00

     total cpu time spent up to now is     58.91 secs

     total energy              =     -47.30615012 Ry
     Harris-Foulkes estimate   =     -47.31086425 Ry
     estimated scf accuracy    <       0.01052920 Ry

     iteration #  5     ecut=    25.00 Ry     beta=0.10
     Davidson diagonalization with overlap
     ethr =  1.50E-04,  avg # of iterations =  1.0

     negative rho (up, down):  0.117E+00 0.000E+00

     total cpu time spent up to now is     70.14 secs

     total energy              =     -47.30247747 Ry
     Harris-Foulkes estimate   =     -47.30626323 Ry
     estimated scf accuracy    <       0.00553828 Ry

     iteration #  6     ecut=    25.00 Ry     beta=0.10
     Davidson diagonalization with overlap
     ethr =  7.91E-05,  avg # of iterations =  4.0

     negative rho (up, down):  0.878E-01 0.000E+00

     total cpu time spent up to now is     87.47 secs

     total energy              =     -47.30225638 Ry
     Harris-Foulkes estimate   =     -47.30266575 Ry
     estimated scf accuracy    <       0.00246601 Ry

     iteration #  7     ecut=    25.00 Ry     beta=0.10
     Davidson diagonalization with overlap
     ethr =  3.52E-05,  avg # of iterations =  8.0

     negative rho (up, down):  0.707E-01 0.000E+00

     total cpu time spent up to now is    101.70 secs

     total energy              =     -47.30255676 Ry
     Harris-Foulkes estimate   =     -47.30289015 Ry
     estimated scf accuracy    <       0.00442029 Ry

     iteration #  8     ecut=    25.00 Ry     beta=0.10
     Davidson diagonalization with overlap
     ethr =  3.52E-05,  avg # of iterations = 12.0

     negative rho (up, down):  0.531E-01 0.000E+00

     total cpu time spent up to now is    118.07 secs

     total energy              =     -47.29945351 Ry
     Harris-Foulkes estimate   =     -47.30319605 Ry
     estimated scf accuracy    <       0.01466909 Ry

     iteration #  9     ecut=    25.00 Ry     beta=0.10
     Davidson diagonalization with overlap
     ethr =  3.52E-05,  avg # of iterations =  2.0

     negative rho (up, down):  0.502E-01 0.000E+00

     total cpu time spent up to now is    130.93 secs

     total energy              =     -47.30156937 Ry
     Harris-Foulkes estimate   =     -47.30033002 Ry
     estimated scf accuracy    <       0.00147410 Ry

     iteration # 10     ecut=    25.00 Ry     beta=0.10
     Davidson diagonalization with overlap
     ethr =  2.11E-05,  avg # of iterations =  1.0

     negative rho (up, down):  0.208E-01 0.000E+00

     total cpu time spent up to now is    145.71 secs

     total energy              =     -47.29964847 Ry
     Harris-Foulkes estimate   =     -47.30176440 Ry
     estimated scf accuracy    <       0.00868710 Ry

     iteration # 11     ecut=    25.00 Ry     beta=0.10
     Davidson diagonalization with overlap
     ethr =  2.11E-05,  avg # of iterations =  2.0

     negative rho (up, down):  0.204E-01 0.000E+00

     total cpu time spent up to now is    163.99 secs

     total energy              =     -47.30032106 Ry
     Harris-Foulkes estimate   =     -47.30032378 Ry
     estimated scf accuracy    <       0.00010115 Ry

     iteration # 12     ecut=    25.00 Ry     beta=0.10
     Davidson diagonalization with overlap
     ethr =  1.45E-06,  avg # of iterations = 13.0

     negative rho (up, down):  0.181E-01 0.000E+00

     total cpu time spent up to now is    179.43 secs

     total energy              =     -47.30028692 Ry
     Harris-Foulkes estimate   =     -47.30033054 Ry
     estimated scf accuracy    <       0.00010947 Ry

     iteration # 13     ecut=    25.00 Ry     beta=0.10
     Davidson diagonalization with overlap
     ethr =  1.45E-06,  avg # of iterations =  4.0

     negative rho (up, down):  0.170E-01 0.000E+00

     total cpu time spent up to now is    198.77 secs

     total energy              =     -47.30037940 Ry
     Harris-Foulkes estimate   =     -47.30032009 Ry
     estimated scf accuracy    <       0.00014979 Ry

     iteration # 14     ecut=    25.00 Ry     beta=0.10
     Davidson diagonalization with overlap
     ethr =  1.45E-06,  avg # of iterations =  5.0

     negative rho (up, down):  0.163E-01 0.000E+00

     total cpu time spent up to now is    209.04 secs

     total energy              =     -47.30038965 Ry
     Harris-Foulkes estimate   =     -47.30038873 Ry
     estimated scf accuracy    <       0.00002036 Ry

     iteration # 15     ecut=    25.00 Ry     beta=0.10
     Davidson diagonalization with overlap
     ethr =  2.91E-07,  avg # of iterations =  1.0

     negative rho (up, down):  0.157E-01 0.000E+00

     total cpu time spent up to now is    224.02 secs

     total energy              =     -47.30038550 Ry
     Harris-Foulkes estimate   =     -47.30039123 Ry
     estimated scf accuracy    <       0.00000137 Ry

     iteration # 16     ecut=    25.00 Ry     beta=0.10
     Davidson diagonalization with overlap
     ethr =  1.95E-08,  avg # of iterations =  1.0

     negative rho (up, down):  0.150E-01 0.000E+00

     total cpu time spent up to now is    238.51 secs

     total energy              =     -47.30037559 Ry
     Harris-Foulkes estimate   =     -47.30038557 Ry
     estimated scf accuracy    <       0.00000079 Ry

     iteration # 17     ecut=    25.00 Ry     beta=0.10
     Davidson diagonalization with overlap
     ethr =  1.12E-08,  avg # of iterations =  2.0

     negative rho (up, down):  0.146E-01 0.000E+00

     total cpu time spent up to now is    251.34 secs

     total energy              =     -47.30036525 Ry
     Harris-Foulkes estimate   =     -47.30037605 Ry
     estimated scf accuracy    <       0.00000172 Ry

     iteration # 18     ecut=    25.00 Ry     beta=0.10
     Davidson diagonalization with overlap
     ethr =  1.12E-08,  avg # of iterations =  1.0

     negative rho (up, down):  0.142E-01 0.000E+00

     total cpu time spent up to now is    265.94 secs

     total energy              =     -47.30035830 Ry
     Harris-Foulkes estimate   =     -47.30036531 Ry
     estimated scf accuracy    <       0.00000268 Ry

     iteration # 19     ecut=    25.00 Ry     beta=0.10
     Davidson diagonalization with overlap
     ethr =  1.12E-08,  avg # of iterations =  1.0

     negative rho (up, down):  0.140E-01 0.000E+00

     total cpu time spent up to now is    280.75 secs

     total energy              =     -47.30035658 Ry
     Harris-Foulkes estimate   =     -47.30035836 Ry
     estimated scf accuracy    <       0.00000132 Ry

     iteration # 20     ecut=    25.00 Ry     beta=0.10
     Davidson diagonalization with overlap
     ethr =  1.12E-08,  avg # of iterations =  1.0

     negative rho (up, down):  0.138E-01 0.000E+00

     total cpu time spent up to now is    292.39 secs

     total energy              =     -47.30035369 Ry
     Harris-Foulkes estimate   =     -47.30035683 Ry
     estimated scf accuracy    <       0.00000939 Ry

     iteration # 21     ecut=    25.00 Ry     beta=0.10
     Davidson diagonalization with overlap
     ethr =  1.12E-08,  avg # of iterations =  2.0

     negative rho (up, down):  0.137E-01 0.000E+00

     total cpu time spent up to now is    305.97 secs

     total energy              =     -47.30035225 Ry
     Harris-Foulkes estimate   =     -47.30035418 Ry
     estimated scf accuracy    <       0.00000035 Ry

     iteration # 22     ecut=    25.00 Ry     beta=0.10
     Davidson diagonalization with overlap
     ethr =  5.04E-09,  avg # of iterations =  1.0

     negative rho (up, down):  0.137E-01 0.000E+00

     total cpu time spent up to now is    316.76 secs

     total energy              =     -47.30035064 Ry
     Harris-Foulkes estimate   =     -47.30035228 Ry
     estimated scf accuracy    <       0.00000035 Ry

     iteration # 23     ecut=    25.00 Ry     beta=0.10
     Davidson diagonalization with overlap
     ethr =  4.94E-09,  avg # of iterations =  1.0

     negative rho (up, down):  0.137E-01 0.000E+00

     total cpu time spent up to now is    334.24 secs

     total energy              =     -47.30034928 Ry
     Harris-Foulkes estimate   =     -47.30035069 Ry
     estimated scf accuracy    <       0.00000013 Ry

     iteration # 24     ecut=    25.00 Ry     beta=0.10
     Davidson diagonalization with overlap
     ethr =  1.82E-09,  avg # of iterations =  1.0

     negative rho (up, down):  0.137E-01 0.000E+00

     total cpu time spent up to now is    352.09 secs

     total energy              =     -47.30034802 Ry
     Harris-Foulkes estimate   =     -47.30034928 Ry
     estimated scf accuracy    <       0.00000018 Ry

     iteration # 25     ecut=    25.00 Ry     beta=0.10
     Davidson diagonalization with overlap
     ethr =  1.82E-09,  avg # of iterations =  2.0

     negative rho (up, down):  0.137E-01 0.000E+00

     total cpu time spent up to now is    363.46 secs

     total energy              =     -47.30034731 Ry
     Harris-Foulkes estimate   =     -47.30034806 Ry
     estimated scf accuracy    <       0.00000083 Ry

     iteration # 26     ecut=    25.00 Ry     beta=0.10
     Davidson diagonalization with overlap
     ethr =  1.82E-09,  avg # of iterations =  1.0

     negative rho (up, down):  0.137E-01 0.000E+00

     total cpu time spent up to now is    375.97 secs

     total energy              =     -47.30034683 Ry
     Harris-Foulkes estimate   =     -47.30034732 Ry
     estimated scf accuracy    <       0.00000025 Ry

     iteration # 27     ecut=    25.00 Ry     beta=0.10
     Davidson diagonalization with overlap
     ethr =  1.82E-09,  avg # of iterations =  1.0

     negative rho (up, down):  0.138E-01 0.000E+00

     total cpu time spent up to now is    389.76 secs

     total energy              =     -47.30034639 Ry
     Harris-Foulkes estimate   =     -47.30034685 Ry
     estimated scf accuracy    <       0.00000002 Ry

     iteration # 28     ecut=    25.00 Ry     beta=0.10
     Davidson diagonalization with overlap
     ethr =  3.35E-10,  avg # of iterations =  1.0

     negative rho (up, down):  0.145E-01 0.000E+00

     total cpu time spent up to now is    392.18 secs

     End of self-consistent calculation

          k = 0.0000 0.0000 0.0000 ( 28595 PWs)   bands (ev):

   -26.5258 -11.5596 -11.5596 -11.5595  -0.5905   0.2181   0.2900

     the Fermi energy is   -11.5180 ev

!    total energy              =     -47.30034345 Ry
     Harris-Foulkes estimate   =     -47.30034639 Ry
     estimated scf accuracy    <          7.8E-09 Ry

     The total energy is the sum of the following terms:

     one-electron contribution =     -68.62364012 Ry
     hartree contribution      =      35.96407371 Ry
     xc contribution           =      -8.82642123 Ry
     ewald contribution        =      -5.80921942 Ry
     smearing contrib. (-TS)   =      -0.00513640 Ry

     convergence has been achieved in  28 iterations
 forces --- starting time for forces:
     forces       :      0.00s CPU      0.00s WALL (       1 calls)

     Forces acting on atoms (Ry/au):

 forces --- nonlocal contribution:
     forces       :      0.56s CPU      0.60s WALL (       2 calls)
 forces --- local contribution:
     forces       :      0.62s CPU      0.66s WALL (       3 calls)
 forces --- NLCC contribution:
     forces       :      0.62s CPU      0.66s WALL (       4 calls)
 forces --- Hubbard contribution:
     forces       :      0.62s CPU      0.66s WALL (       5 calls)
 forces --- ionic contribution:
     forces       :      0.64s CPU      0.68s WALL (       6 calls)
 forces --- SCF contribution:
     forces       :      1.16s CPU      1.20s WALL (       7 calls)
     atom   1 type  1   force =     0.00000000    0.00000000    0.00000000

     Total force =     0.000000     Total SCF correction =     0.000000


     entering subroutine stress ...

          total   stress  (Ry/bohr**3)                   (kbar)     P=   -2.07
  -0.00001398   0.00000000   0.00000000         -2.06      0.00      0.00
   0.00000000  -0.00001406   0.00000000          0.00     -2.07      0.00
   0.00000000   0.00000000  -0.00001410          0.00      0.00     -2.07


     Writing output data file atom.O-XCH.save
 
     init_run     :      3.33s CPU      3.50s WALL (       1 calls)
     electrons    :    383.86s CPU    388.62s WALL (       1 calls)
     forces       :      1.16s CPU      1.20s WALL (       8 calls)
     stress       :      3.62s CPU      3.75s WALL (       1 calls)

     Called by init_run:
     wfcinit      :      0.17s CPU      0.17s WALL (       1 calls)
     potinit      :      1.58s CPU      1.66s WALL (       1 calls)

     Called by electrons:
     c_bands      :     12.78s CPU     12.81s WALL (      28 calls)
     sum_band     :     17.10s CPU     17.81s WALL (      28 calls)
     v_of_rho     :     23.03s CPU     24.31s WALL (      29 calls)
     newd         :     15.18s CPU     15.89s WALL (      29 calls)
     mix_rho      :    312.99s CPU    313.54s WALL (      28 calls)

     Called by c_bands:
     init_us_2    :      0.24s CPU      0.24s WALL (      57 calls)
     cegterg      :     12.47s CPU     12.49s WALL (      28 calls)

     Called by *egterg:
     h_psi        :     11.75s CPU     11.77s WALL (     113 calls)
     s_psi        :      0.07s CPU      0.07s WALL (     113 calls)
     g_psi        :      0.07s CPU      0.07s WALL (      84 calls)
     cdiaghg      :      0.02s CPU      0.02s WALL (     112 calls)

     Called by h_psi:
     add_vuspsi   :      0.08s CPU      0.08s WALL (     113 calls)

     General routines
     calbec       :      0.11s CPU      0.12s WALL (     143 calls)
     fft          :     19.56s CPU     20.06s WALL (     468 calls)
     ffts         :    171.79s CPU    171.82s WALL (   13160 calls)
     fftw         :     12.24s CPU     12.26s WALL (    1256 calls)
     interpolate  :      3.59s CPU      3.98s WALL (      57 calls)
     davcio       :      0.01s CPU      0.05s WALL (      29 calls)
 
     Parallel routines
 
     PWSCF        :  6m32.28s CPU     6m37.57s WALL

 
   This run was terminated on:  18:48:50   4Sep2018            

=------------------------------------------------------------------------------=
   JOB DONE.
=------------------------------------------------------------------------------=
