
     Program PWSCF v.4.3        starts on 11Sep2018 at  1:13:39 

     This program is part of the open-source Quantum ESPRESSO suite
     for quantum simulation of materials; please cite
         "P. Giannozzi et al., J. Phys.:Condens. Matter 21 395502 (2009);
          URL http://www.quantum-espresso.org", 
     in publications or presentations arising from this work. More details at
     http://www.quantum-espresso.org/wiki/index.php/Citing_Quantum-ESPRESSO

     Parallel version (MPI), running on    64 processors
     R & G space division:  proc/pool =   64

     Current dimensions of program PWSCF are:
     Max number of different atomic species (ntypx) = **
     Max number of k-points (npk) =  40000
     Max angular momentum in pseudopotentials (lmaxx) =  3
     Waiting for input...

     Subspace diagonalization in iterative solution of the eigenvalue problem:
     parallel, distributed-memory algorithm (size of sub-group:  5*  5 procs)

 
   Stick Mesh
   ----------
   nst = 10457,  nstw =  1155, nsts =  4177
               n.st   n.stw   n.sts    n.g    n.gw   n.gs
   min         163      18      65    9923     362    2501
   max         164      19      66    9926     366    2528
      10457    1155    4177  635163   23329  160693
 


     bravais-lattice index     =           14
     lattice parameter (a_0)   =      21.7375  a.u.
     unit-cell volume          =    7238.1051 (a.u.)^3
     number of atoms/cell      =           84
     number of atomic types    =            3
     number of electrons       =       672.00
     number of Kohn-Sham states=          403
     kinetic-energy cutoff     =      30.0000  Ry
     charge density cutoff     =     300.0000  Ry
     convergence threshold     =      1.0E-08
     mixing beta               =       0.3000
     number of iterations used =            8  local-TF  mixing
     Exchange-correlation      = SLA  PW   PBE  PBE (1434)
     EXX-fraction              =        0.00

     celldm(1)=  21.737520  celldm(2)=   0.927671  celldm(3)=   0.759628
     celldm(4)=   0.000000  celldm(5)=   0.000000  celldm(6)=   0.000000

     crystal axes: (cart. coord. in units of a_0)
               a(1) = (   1.000000   0.000000   0.000000 )  
               a(2) = (   0.000000   0.927671   0.000000 )  
               a(3) = (   0.000000   0.000000   0.759628 )  

     reciprocal axes: (cart. coord. in units 2 pi/a_0)
               b(1) = (  1.000000  0.000000  0.000000 )  
               b(2) = (  0.000000  1.077968  0.000000 )  
               b(3) = (  0.000000  0.000000  1.316434 )  


     PseudoPot. # 1 for O  read from file O.pbe-van_bm.UPF
     MD5 check sum: ca2828d9fb1f294809e918903b7648d1
     Pseudo is Ultrasoft, Zval =  6.0
     Generated by new atomic code, or converted to UPF format
     Using radial grid of  737 points,  4 beta functions with: 
                l(1) =   0
                l(2) =   0
                l(3) =   1
                l(4) =   1
     Q(r) pseudized with  8 coefficients,  rinner =    0.800   0.800   0.800


     PseudoPot. # 2 for V  read from file V.pbe-van-yufengl.UPF
     MD5 check sum: 105a573f738f0b837c178d5a4207921b
     Pseudo is Ultrasoft + core correction, Zval = 13.0
     Generated by new atomic code, or converted to UPF format
     Using radial grid of  853 points,  6 beta functions with: 
                l(1) =   0
                l(2) =   0
                l(3) =   1
                l(4) =   1
                l(5) =   2
                l(6) =   2
     Q(r) pseudized with  6 coefficients,  rinner =    1.000   1.000   1.000
                                                       1.000   1.000

     PseudoPot. # 3 for ox read from file O.pbe-van-dgp-1s1.UPF
     MD5 check sum: 2083901d62884ac3a15d661bda1575b3
     Pseudo is Ultrasoft, Zval =  7.0
     Generated by new atomic code, or converted to UPF format
     Using radial grid of  737 points,  4 beta functions with: 
                l(1) =   0
                l(2) =   0
                l(3) =   1
                l(4) =   1
     Q(r) pseudized with  8 coefficients,  rinner =    0.800   0.800   0.800


     atomic species   valence    mass     pseudopotential
        O              6.00    15.99900     O ( 1.00)
        V             13.00    50.94000     V ( 1.00)
        OX             7.00    15.99900     ox( 1.00)

     Starting magnetic structure 
     atomic species   magnetization
        O            0.000
        V            0.010
        OX           0.000

     LDA+U calculation, Hubbard_lmax = 2
     atomic species  L   Hubbard U  Hubbard alpha
        V            2    0.227846    0.000000

      4 Sym.Ops. (no inversion)


   Cartesian axes

     site n.     atom                  positions (a_0 units)
         1           V   tau(  1) = (   0.1483269   0.0000000   0.3388149  )
         2           V   tau(  2) = (   0.1483269   0.0000000   0.7186289  )
         3           V   tau(  3) = (   0.1483269   0.3092237   0.3388149  )
         4           V   tau(  4) = (   0.1483269   0.3092237   0.7186289  )
         5           V   tau(  5) = (   0.1483269   0.6184474   0.3388149  )
         6           V   tau(  6) = (   0.1483269   0.6184474   0.7186289  )
         7           V   tau(  7) = (   0.3516731   0.1546118   0.0409986  )
         8           V   tau(  8) = (   0.3516731   0.1546118   0.4208125  )
         9           V   tau(  9) = (   0.3516731   0.4638355   0.0409986  )
        10           V   tau( 10) = (   0.3516731   0.4638355   0.4208125  )
        11           V   tau( 11) = (   0.3516731   0.7730592   0.0409986  )
        12           V   tau( 12) = (   0.3516731   0.7730592   0.4208125  )
        13           V   tau( 13) = (   0.6483270   0.1546118   0.0409980  )
        14           V   tau( 14) = (   0.6483270   0.1546118   0.4208119  )
        15           V   tau( 15) = (   0.6483270   0.4638355   0.0409980  )
        16           V   tau( 16) = (   0.6483270   0.4638355   0.4208119  )
        17           V   tau( 17) = (   0.6483270   0.7730592   0.0409980  )
        18           V   tau( 18) = (   0.6483270   0.7730592   0.4208119  )
        19           V   tau( 19) = (   0.8516731   0.0000000   0.3388154  )
        20           V   tau( 20) = (   0.8516731   0.0000000   0.7186293  )
        21           V   tau( 21) = (   0.8516731   0.3092237   0.3388154  )
        22           V   tau( 22) = (   0.8516731   0.3092237   0.7186293  )
        23           V   tau( 23) = (   0.8516731   0.6184474   0.3388154  )
        24           V   tau( 24) = (   0.8516731   0.6184474   0.7186293  )
        25           O   tau( 25) = (   0.1813361   0.1546118   0.3796345  )
        26           O   tau( 26) = (   0.1813361   0.1546118   0.7594484  )
        27           O   tau( 27) = (   0.1813361   0.4638355   0.3796345  )
        28           O   tau( 28) = (   0.1813361   0.4638355   0.7594484  )
        29           O   tau( 29) = (   0.1813361   0.7730592   0.3796345  )
        30           O   tau( 30) = (   0.1813361   0.7730592   0.7594484  )
        31           O   tau( 31) = (   0.3186639   0.0000000   0.0001795  )
        32           O   tau( 32) = (   0.3186639   0.0000000   0.3799935  )
        33           O   tau( 33) = (   0.3186639   0.3092237   0.0001795  )
        34           O   tau( 34) = (   0.3186639   0.3092237   0.3799935  )
        35           O   tau( 35) = (   0.3186639   0.6184474   0.0001795  )
        36           O   tau( 36) = (   0.3186639   0.6184474   0.3799935  )
        37           O   tau( 37) = (   0.6813362   0.0000000   0.0001795  )
        38           O   tau( 38) = (   0.6813362   0.0000000   0.3799935  )
        39           O   tau( 39) = (   0.6813362   0.3092237   0.0001795  )
        40           O   tau( 40) = (   0.6813362   0.3092237   0.3799935  )
        41           O   tau( 41) = (   0.6813362   0.6184474   0.0001795  )
        42           O   tau( 42) = (   0.6813362   0.6184474   0.3799935  )
        43           O   tau( 43) = (   0.8186639   0.1546118   0.3796345  )
        44           O   tau( 44) = (   0.8186639   0.1546118   0.7594485  )
        45           O   tau( 45) = (   0.8186639   0.4638355   0.3796345  )
        46           O   tau( 46) = (   0.8186639   0.4638355   0.7594485  )
        47           O   tau( 47) = (   0.8186639   0.7730592   0.3796345  )
        48           O   tau( 48) = (   0.8186639   0.7730592   0.7594485  )
        49           O   tau( 49) = (   0.8552736   0.0000000   0.2004983  )
        50           O   tau( 50) = (   0.8552736   0.0000000   0.5803123  )
        51           O   tau( 51) = (   0.8552736   0.3092237   0.2004983  )
        52           O   tau( 52) = (   0.8552736   0.3092237   0.5803123  )
        53           O   tau( 53) = (   0.8552736   0.6184474   0.2004983  )
        54           O   tau( 54) = (   0.8552736   0.6184474   0.5803123  )
        55           O   tau( 55) = (   0.6447264   0.1546118   0.1793162  )
        56           O   tau( 56) = (   0.6447264   0.1546118   0.5591301  )
        57           O   tau( 57) = (   0.6447264   0.4638355   0.1793162  )
        58           O   tau( 58) = (   0.6447264   0.4638355   0.5591301  )
        59           O   tau( 59) = (   0.6447264   0.7730592   0.1793162  )
        60           O   tau( 60) = (   0.6447264   0.7730592   0.5591301  )
        61           O   tau( 61) = (   0.3552736   0.1546118   0.1793157  )
        62           O   tau( 62) = (   0.3552736   0.1546118   0.5591297  )
        63           O   tau( 63) = (   0.3552736   0.4638355   0.1793157  )
        64           O   tau( 64) = (   0.3552736   0.4638355   0.5591297  )
        65           O   tau( 65) = (   0.3552736   0.7730592   0.1793157  )
        66           O   tau( 66) = (   0.3552736   0.7730592   0.5591297  )
        67           OX  tau( 67) = (   0.5000000   0.1546118   0.3788864  )
        68           O   tau( 68) = (   0.5000000   0.1546118   0.7587004  )
        69           O   tau( 69) = (   0.5000000   0.4638355   0.3788864  )
        70           O   tau( 70) = (   0.5000000   0.4638355   0.7587004  )
        71           O   tau( 71) = (   0.5000000   0.7730592   0.3788864  )
        72           O   tau( 72) = (   0.5000000   0.7730592   0.7587004  )
        73           O   tau( 73) = (  -0.0000000   0.0000000   0.0009276  )
        74           O   tau( 74) = (  -0.0000000   0.0000000   0.3807415  )
        75           O   tau( 75) = (  -0.0000000   0.3092237   0.0009276  )
        76           O   tau( 76) = (  -0.0000000   0.3092237   0.3807415  )
        77           O   tau( 77) = (  -0.0000000   0.6184474   0.0009276  )
        78           O   tau( 78) = (  -0.0000000   0.6184474   0.3807415  )
        79           O   tau( 79) = (   0.1447264   0.0000000   0.2004987  )
        80           O   tau( 80) = (   0.1447264   0.0000000   0.5803126  )
        81           O   tau( 81) = (   0.1447264   0.3092237   0.2004987  )
        82           O   tau( 82) = (   0.1447264   0.3092237   0.5803126  )
        83           O   tau( 83) = (   0.1447264   0.6184474   0.2004987  )
        84           O   tau( 84) = (   0.1447264   0.6184474   0.5803126  )

     number of k points=    16  Fermi-Dirac smearing, width (Ry)=  0.0019
                       cart. coord. in units 2pi/a_0
        k(    1) = (   0.0000000   0.0000000   0.0000000), wk =   0.1250000
        k(    2) = (   0.0000000   0.0000000  -0.6582170), wk =   0.1250000
        k(    3) = (   0.0000000  -0.5389842   0.0000000), wk =   0.1250000
        k(    4) = (   0.0000000  -0.5389842  -0.6582170), wk =   0.1250000
        k(    5) = (  -0.5000000   0.0000000   0.0000000), wk =   0.1250000
        k(    6) = (  -0.5000000   0.0000000  -0.6582170), wk =   0.1250000
        k(    7) = (  -0.5000000  -0.5389842   0.0000000), wk =   0.1250000
        k(    8) = (  -0.5000000  -0.5389842  -0.6582170), wk =   0.1250000
        k(    9) = (   0.0000000   0.0000000   0.0000000), wk =   0.1250000
        k(   10) = (   0.0000000   0.0000000  -0.6582170), wk =   0.1250000
        k(   11) = (   0.0000000  -0.5389842   0.0000000), wk =   0.1250000
        k(   12) = (   0.0000000  -0.5389842  -0.6582170), wk =   0.1250000
        k(   13) = (  -0.5000000   0.0000000   0.0000000), wk =   0.1250000
        k(   14) = (  -0.5000000   0.0000000  -0.6582170), wk =   0.1250000
        k(   15) = (  -0.5000000  -0.5389842   0.0000000), wk =   0.1250000
        k(   16) = (  -0.5000000  -0.5389842  -0.6582170), wk =   0.1250000

     G cutoff = 3590.7196  ( 635163 G-vectors)     FFT grid: (120,120, 96)
     G cutoff = 1436.2879  ( 160693 G-vectors)  smooth grid: ( 75, 72, 60)

     Largest allocated arrays     est. size (Mb)     dimensions
        Kohn-Sham Wavefunctions         1.97 Mb     (    321, 403)
        Atomic wavefunctions            2.35 Mb     (    321, 480)
        NL pseudopotentials             4.47 Mb     (    321, 912)
        Each V/rho on FFT grid          0.88 Mb     (  28800,   2)
        Each G-vector array             0.08 Mb     (   9926)
        G-vector shells                 0.04 Mb     (   4974)
     Largest temporary arrays     est. size (Mb)     dimensions
        Auxiliary wavefunctions         7.90 Mb     (    321,1612)
        Each subspace H/S matrix       39.65 Mb     (   1612,1612)
        Each <psi_i|beta_j> matrix      5.61 Mb     (    912, 403)
        Arrays for rho mixing           3.52 Mb     (  28800,   8)

     Check: negative/imaginary core charge=   -0.000004    0.000000

     Initial potential from superposition of free atoms
     Check: negative starting charge=(component1):   -0.005916
     Check: negative starting charge=(component2):   -0.005794

     starting charge  671.97045, renormalised to  672.00000

     negative rho (up, down):  0.592E-02 0.579E-02

     Parameters of the lda+U calculation:
     Number of iteration with fixed ns =  0
     Starting ns and Hubbard U :
 enter write_ns
U( 1) =  0.0000      U( 2) =  3.1000      U( 3) =  0.0000
alpha( 1) =  0.0000      alpha( 2) =  0.0000      alpha( 3) =  0.0000
atom    1   Tr[ns(na)]=   3.0000000
atom    1   spin  1
eigenvalues:  0.6000000 0.6000000 0.6000000 0.6000000 0.6000000
 eigenvectors
 1   1.0000000  0.0000000  0.0000000  0.0000000  0.0000000
 2   0.0000000  1.0000000  0.0000000  0.0000000  0.0000000
 3   0.0000000  0.0000000  1.0000000  0.0000000  0.0000000
 4   0.0000000  0.0000000  0.0000000  1.0000000  0.0000000
 5   0.0000000  0.0000000  0.0000000  0.0000000  1.0000000
 occupations
 0.600  0.000  0.000  0.000  0.000
 0.000  0.600  0.000  0.000  0.000
 0.000  0.000  0.600  0.000  0.000
 0.000  0.000  0.000  0.600  0.000
 0.000  0.000  0.000  0.000  0.600
atom    1   spin  2
eigenvalues:  0.0000000 0.0000000 0.0000000 0.0000000 0.0000000
 eigenvectors
 1   1.0000000  0.0000000  0.0000000  0.0000000  0.0000000
 2   0.0000000  1.0000000  0.0000000  0.0000000  0.0000000
 3   0.0000000  0.0000000  1.0000000  0.0000000  0.0000000
 4   0.0000000  0.0000000  0.0000000  1.0000000  0.0000000
 5   0.0000000  0.0000000  0.0000000  0.0000000  1.0000000
 occupations
 0.000  0.000  0.000  0.000  0.000
 0.000  0.000  0.000  0.000  0.000
 0.000  0.000  0.000  0.000  0.000
 0.000  0.000  0.000  0.000  0.000
 0.000  0.000  0.000  0.000  0.000
atom    2   Tr[ns(na)]=   3.0000000
atom    2   spin  1
eigenvalues:  0.6000000 0.6000000 0.6000000 0.6000000 0.6000000
 eigenvectors
 1   1.0000000  0.0000000  0.0000000  0.0000000  0.0000000
 2   0.0000000  1.0000000  0.0000000  0.0000000  0.0000000
 3   0.0000000  0.0000000  1.0000000  0.0000000  0.0000000
 4   0.0000000  0.0000000  0.0000000  1.0000000  0.0000000
 5   0.0000000  0.0000000  0.0000000  0.0000000  1.0000000
 occupations
 0.600  0.000  0.000  0.000  0.000
 0.000  0.600  0.000  0.000  0.000
 0.000  0.000  0.600  0.000  0.000
 0.000  0.000  0.000  0.600  0.000
 0.000  0.000  0.000  0.000  0.600
atom    2   spin  2
eigenvalues:  0.0000000 0.0000000 0.0000000 0.0000000 0.0000000
 eigenvectors
 1   1.0000000  0.0000000  0.0000000  0.0000000  0.0000000
 2   0.0000000  1.0000000  0.0000000  0.0000000  0.0000000
 3   0.0000000  0.0000000  1.0000000  0.0000000  0.0000000
 4   0.0000000  0.0000000  0.0000000  1.0000000  0.0000000
 5   0.0000000  0.0000000  0.0000000  0.0000000  1.0000000
 occupations
 0.000  0.000  0.000  0.000  0.000
 0.000  0.000  0.000  0.000  0.000
 0.000  0.000  0.000  0.000  0.000
 0.000  0.000  0.000  0.000  0.000
 0.000  0.000  0.000  0.000  0.000
atom    3   Tr[ns(na)]=   3.0000000
atom    3   spin  1
eigenvalues:  0.6000000 0.6000000 0.6000000 0.6000000 0.6000000
 eigenvectors
 1   1.0000000  0.0000000  0.0000000  0.0000000  0.0000000
 2   0.0000000  1.0000000  0.0000000  0.0000000  0.0000000
 3   0.0000000  0.0000000  1.0000000  0.0000000  0.0000000
 4   0.0000000  0.0000000  0.0000000  1.0000000  0.0000000
 5   0.0000000  0.0000000  0.0000000  0.0000000  1.0000000
 occupations
 0.600  0.000  0.000  0.000  0.000
 0.000  0.600  0.000  0.000  0.000
 0.000  0.000  0.600  0.000  0.000
 0.000  0.000  0.000  0.600  0.000
 0.000  0.000  0.000  0.000  0.600
atom    3   spin  2
eigenvalues:  0.0000000 0.0000000 0.0000000 0.0000000 0.0000000
 eigenvectors
 1   1.0000000  0.0000000  0.0000000  0.0000000  0.0000000
 2   0.0000000  1.0000000  0.0000000  0.0000000  0.0000000
 3   0.0000000  0.0000000  1.0000000  0.0000000  0.0000000
 4   0.0000000  0.0000000  0.0000000  1.0000000  0.0000000
 5   0.0000000  0.0000000  0.0000000  0.0000000  1.0000000
 occupations
 0.000  0.000  0.000  0.000  0.000
 0.000  0.000  0.000  0.000  0.000
 0.000  0.000  0.000  0.000  0.000
 0.000  0.000  0.000  0.000  0.000
 0.000  0.000  0.000  0.000  0.000
atom    4   Tr[ns(na)]=   3.0000000
atom    4   spin  1
eigenvalues:  0.6000000 0.6000000 0.6000000 0.6000000 0.6000000
 eigenvectors
 1   1.0000000  0.0000000  0.0000000  0.0000000  0.0000000
 2   0.0000000  1.0000000  0.0000000  0.0000000  0.0000000
 3   0.0000000  0.0000000  1.0000000  0.0000000  0.0000000
 4   0.0000000  0.0000000  0.0000000  1.0000000  0.0000000
 5   0.0000000  0.0000000  0.0000000  0.0000000  1.0000000
 occupations
 0.600  0.000  0.000  0.000  0.000
 0.000  0.600  0.000  0.000  0.000
 0.000  0.000  0.600  0.000  0.000
 0.000  0.000  0.000  0.600  0.000
 0.000  0.000  0.000  0.000  0.600
atom    4   spin  2
eigenvalues:  0.0000000 0.0000000 0.0000000 0.0000000 0.0000000
 eigenvectors
 1   1.0000000  0.0000000  0.0000000  0.0000000  0.0000000
 2   0.0000000  1.0000000  0.0000000  0.0000000  0.0000000
 3   0.0000000  0.0000000  1.0000000  0.0000000  0.0000000
 4   0.0000000  0.0000000  0.0000000  1.0000000  0.0000000
 5   0.0000000  0.0000000  0.0000000  0.0000000  1.0000000
 occupations
 0.000  0.000  0.000  0.000  0.000
 0.000  0.000  0.000  0.000  0.000
 0.000  0.000  0.000  0.000  0.000
 0.000  0.000  0.000  0.000  0.000
 0.000  0.000  0.000  0.000  0.000
atom    5   Tr[ns(na)]=   3.0000000
atom    5   spin  1
eigenvalues:  0.6000000 0.6000000 0.6000000 0.6000000 0.6000000
 eigenvectors
 1   1.0000000  0.0000000  0.0000000  0.0000000  0.0000000
 2   0.0000000  1.0000000  0.0000000  0.0000000  0.0000000
 3   0.0000000  0.0000000  1.0000000  0.0000000  0.0000000
 4   0.0000000  0.0000000  0.0000000  1.0000000  0.0000000
 5   0.0000000  0.0000000  0.0000000  0.0000000  1.0000000
 occupations
 0.600  0.000  0.000  0.000  0.000
 0.000  0.600  0.000  0.000  0.000
 0.000  0.000  0.600  0.000  0.000
 0.000  0.000  0.000  0.600  0.000
 0.000  0.000  0.000  0.000  0.600
atom    5   spin  2
eigenvalues:  0.0000000 0.0000000 0.0000000 0.0000000 0.0000000
 eigenvectors
 1   1.0000000  0.0000000  0.0000000  0.0000000  0.0000000
 2   0.0000000  1.0000000  0.0000000  0.0000000  0.0000000
 3   0.0000000  0.0000000  1.0000000  0.0000000  0.0000000
 4   0.0000000  0.0000000  0.0000000  1.0000000  0.0000000
 5   0.0000000  0.0000000  0.0000000  0.0000000  1.0000000
 occupations
 0.000  0.000  0.000  0.000  0.000
 0.000  0.000  0.000  0.000  0.000
 0.000  0.000  0.000  0.000  0.000
 0.000  0.000  0.000  0.000  0.000
 0.000  0.000  0.000  0.000  0.000
atom    6   Tr[ns(na)]=   3.0000000
atom    6   spin  1
eigenvalues:  0.6000000 0.6000000 0.6000000 0.6000000 0.6000000
 eigenvectors
 1   1.0000000  0.0000000  0.0000000  0.0000000  0.0000000
 2   0.0000000  1.0000000  0.0000000  0.0000000  0.0000000
 3   0.0000000  0.0000000  1.0000000  0.0000000  0.0000000
 4   0.0000000  0.0000000  0.0000000  1.0000000  0.0000000
 5   0.0000000  0.0000000  0.0000000  0.0000000  1.0000000
 occupations
 0.600  0.000  0.000  0.000  0.000
 0.000  0.600  0.000  0.000  0.000
 0.000  0.000  0.600  0.000  0.000
 0.000  0.000  0.000  0.600  0.000
 0.000  0.000  0.000  0.000  0.600
atom    6   spin  2
eigenvalues:  0.0000000 0.0000000 0.0000000 0.0000000 0.0000000
 eigenvectors
 1   1.0000000  0.0000000  0.0000000  0.0000000  0.0000000
 2   0.0000000  1.0000000  0.0000000  0.0000000  0.0000000
 3   0.0000000  0.0000000  1.0000000  0.0000000  0.0000000
 4   0.0000000  0.0000000  0.0000000  1.0000000  0.0000000
 5   0.0000000  0.0000000  0.0000000  0.0000000  1.0000000
 occupations
 0.000  0.000  0.000  0.000  0.000
 0.000  0.000  0.000  0.000  0.000
 0.000  0.000  0.000  0.000  0.000
 0.000  0.000  0.000  0.000  0.000
 0.000  0.000  0.000  0.000  0.000
atom    7   Tr[ns(na)]=   3.0000000
atom    7   spin  1
eigenvalues:  0.6000000 0.6000000 0.6000000 0.6000000 0.6000000
 eigenvectors
 1   1.0000000  0.0000000  0.0000000  0.0000000  0.0000000
 2   0.0000000  1.0000000  0.0000000  0.0000000  0.0000000
 3   0.0000000  0.0000000  1.0000000  0.0000000  0.0000000
 4   0.0000000  0.0000000  0.0000000  1.0000000  0.0000000
 5   0.0000000  0.0000000  0.0000000  0.0000000  1.0000000
 occupations
 0.600  0.000  0.000  0.000  0.000
 0.000  0.600  0.000  0.000  0.000
 0.000  0.000  0.600  0.000  0.000
 0.000  0.000  0.000  0.600  0.000
 0.000  0.000  0.000  0.000  0.600
atom    7   spin  2
eigenvalues:  0.0000000 0.0000000 0.0000000 0.0000000 0.0000000
 eigenvectors
 1   1.0000000  0.0000000  0.0000000  0.0000000  0.0000000
 2   0.0000000  1.0000000  0.0000000  0.0000000  0.0000000
 3   0.0000000  0.0000000  1.0000000  0.0000000  0.0000000
 4   0.0000000  0.0000000  0.0000000  1.0000000  0.0000000
 5   0.0000000  0.0000000  0.0000000  0.0000000  1.0000000
 occupations
 0.000  0.000  0.000  0.000  0.000
 0.000  0.000  0.000  0.000  0.000
 0.000  0.000  0.000  0.000  0.000
 0.000  0.000  0.000  0.000  0.000
 0.000  0.000  0.000  0.000  0.000
atom    8   Tr[ns(na)]=   3.0000000
atom    8   spin  1
eigenvalues:  0.6000000 0.6000000 0.6000000 0.6000000 0.6000000
 eigenvectors
 1   1.0000000  0.0000000  0.0000000  0.0000000  0.0000000
 2   0.0000000  1.0000000  0.0000000  0.0000000  0.0000000
 3   0.0000000  0.0000000  1.0000000  0.0000000  0.0000000
 4   0.0000000  0.0000000  0.0000000  1.0000000  0.0000000
 5   0.0000000  0.0000000  0.0000000  0.0000000  1.0000000
 occupations
 0.600  0.000  0.000  0.000  0.000
 0.000  0.600  0.000  0.000  0.000
 0.000  0.000  0.600  0.000  0.000
 0.000  0.000  0.000  0.600  0.000
 0.000  0.000  0.000  0.000  0.600
atom    8   spin  2
eigenvalues:  0.0000000 0.0000000 0.0000000 0.0000000 0.0000000
 eigenvectors
 1   1.0000000  0.0000000  0.0000000  0.0000000  0.0000000
 2   0.0000000  1.0000000  0.0000000  0.0000000  0.0000000
 3   0.0000000  0.0000000  1.0000000  0.0000000  0.0000000
 4   0.0000000  0.0000000  0.0000000  1.0000000  0.0000000
 5   0.0000000  0.0000000  0.0000000  0.0000000  1.0000000
 occupations
 0.000  0.000  0.000  0.000  0.000
 0.000  0.000  0.000  0.000  0.000
 0.000  0.000  0.000  0.000  0.000
 0.000  0.000  0.000  0.000  0.000
 0.000  0.000  0.000  0.000  0.000
atom    9   Tr[ns(na)]=   3.0000000
atom    9   spin  1
eigenvalues:  0.6000000 0.6000000 0.6000000 0.6000000 0.6000000
 eigenvectors
 1   1.0000000  0.0000000  0.0000000  0.0000000  0.0000000
 2   0.0000000  1.0000000  0.0000000  0.0000000  0.0000000
 3   0.0000000  0.0000000  1.0000000  0.0000000  0.0000000
 4   0.0000000  0.0000000  0.0000000  1.0000000  0.0000000
 5   0.0000000  0.0000000  0.0000000  0.0000000  1.0000000
 occupations
 0.600  0.000  0.000  0.000  0.000
 0.000  0.600  0.000  0.000  0.000
 0.000  0.000  0.600  0.000  0.000
 0.000  0.000  0.000  0.600  0.000
 0.000  0.000  0.000  0.000  0.600
atom    9   spin  2
eigenvalues:  0.0000000 0.0000000 0.0000000 0.0000000 0.0000000
 eigenvectors
 1   1.0000000  0.0000000  0.0000000  0.0000000  0.0000000
 2   0.0000000  1.0000000  0.0000000  0.0000000  0.0000000
 3   0.0000000  0.0000000  1.0000000  0.0000000  0.0000000
 4   0.0000000  0.0000000  0.0000000  1.0000000  0.0000000
 5   0.0000000  0.0000000  0.0000000  0.0000000  1.0000000
 occupations
 0.000  0.000  0.000  0.000  0.000
 0.000  0.000  0.000  0.000  0.000
 0.000  0.000  0.000  0.000  0.000
 0.000  0.000  0.000  0.000  0.000
 0.000  0.000  0.000  0.000  0.000
atom   10   Tr[ns(na)]=   3.0000000
atom   10   spin  1
eigenvalues:  0.6000000 0.6000000 0.6000000 0.6000000 0.6000000
 eigenvectors
 1   1.0000000  0.0000000  0.0000000  0.0000000  0.0000000
 2   0.0000000  1.0000000  0.0000000  0.0000000  0.0000000
 3   0.0000000  0.0000000  1.0000000  0.0000000  0.0000000
 4   0.0000000  0.0000000  0.0000000  1.0000000  0.0000000
 5   0.0000000  0.0000000  0.0000000  0.0000000  1.0000000
 occupations
 0.600  0.000  0.000  0.000  0.000
 0.000  0.600  0.000  0.000  0.000
 0.000  0.000  0.600  0.000  0.000
 0.000  0.000  0.000  0.600  0.000
 0.000  0.000  0.000  0.000  0.600
atom   10   spin  2
eigenvalues:  0.0000000 0.0000000 0.0000000 0.0000000 0.0000000
 eigenvectors
 1   1.0000000  0.0000000  0.0000000  0.0000000  0.0000000
 2   0.0000000  1.0000000  0.0000000  0.0000000  0.0000000
 3   0.0000000  0.0000000  1.0000000  0.0000000  0.0000000
 4   0.0000000  0.0000000  0.0000000  1.0000000  0.0000000
 5   0.0000000  0.0000000  0.0000000  0.0000000  1.0000000
 occupations
 0.000  0.000  0.000  0.000  0.000
 0.000  0.000  0.000  0.000  0.000
 0.000  0.000  0.000  0.000  0.000
 0.000  0.000  0.000  0.000  0.000
 0.000  0.000  0.000  0.000  0.000
atom   11   Tr[ns(na)]=   3.0000000
atom   11   spin  1
eigenvalues:  0.6000000 0.6000000 0.6000000 0.6000000 0.6000000
 eigenvectors
 1   1.0000000  0.0000000  0.0000000  0.0000000  0.0000000
 2   0.0000000  1.0000000  0.0000000  0.0000000  0.0000000
 3   0.0000000  0.0000000  1.0000000  0.0000000  0.0000000
 4   0.0000000  0.0000000  0.0000000  1.0000000  0.0000000
 5   0.0000000  0.0000000  0.0000000  0.0000000  1.0000000
 occupations
 0.600  0.000  0.000  0.000  0.000
 0.000  0.600  0.000  0.000  0.000
 0.000  0.000  0.600  0.000  0.000
 0.000  0.000  0.000  0.600  0.000
 0.000  0.000  0.000  0.000  0.600
atom   11   spin  2
eigenvalues:  0.0000000 0.0000000 0.0000000 0.0000000 0.0000000
 eigenvectors
 1   1.0000000  0.0000000  0.0000000  0.0000000  0.0000000
 2   0.0000000  1.0000000  0.0000000  0.0000000  0.0000000
 3   0.0000000  0.0000000  1.0000000  0.0000000  0.0000000
 4   0.0000000  0.0000000  0.0000000  1.0000000  0.0000000
 5   0.0000000  0.0000000  0.0000000  0.0000000  1.0000000
 occupations
 0.000  0.000  0.000  0.000  0.000
 0.000  0.000  0.000  0.000  0.000
 0.000  0.000  0.000  0.000  0.000
 0.000  0.000  0.000  0.000  0.000
 0.000  0.000  0.000  0.000  0.000
atom   12   Tr[ns(na)]=   3.0000000
atom   12   spin  1
eigenvalues:  0.6000000 0.6000000 0.6000000 0.6000000 0.6000000
 eigenvectors
 1   1.0000000  0.0000000  0.0000000  0.0000000  0.0000000
 2   0.0000000  1.0000000  0.0000000  0.0000000  0.0000000
 3   0.0000000  0.0000000  1.0000000  0.0000000  0.0000000
 4   0.0000000  0.0000000  0.0000000  1.0000000  0.0000000
 5   0.0000000  0.0000000  0.0000000  0.0000000  1.0000000
 occupations
 0.600  0.000  0.000  0.000  0.000
 0.000  0.600  0.000  0.000  0.000
 0.000  0.000  0.600  0.000  0.000
 0.000  0.000  0.000  0.600  0.000
 0.000  0.000  0.000  0.000  0.600
atom   12   spin  2
eigenvalues:  0.0000000 0.0000000 0.0000000 0.0000000 0.0000000
 eigenvectors
 1   1.0000000  0.0000000  0.0000000  0.0000000  0.0000000
 2   0.0000000  1.0000000  0.0000000  0.0000000  0.0000000
 3   0.0000000  0.0000000  1.0000000  0.0000000  0.0000000
 4   0.0000000  0.0000000  0.0000000  1.0000000  0.0000000
 5   0.0000000  0.0000000  0.0000000  0.0000000  1.0000000
 occupations
 0.000  0.000  0.000  0.000  0.000
 0.000  0.000  0.000  0.000  0.000
 0.000  0.000  0.000  0.000  0.000
 0.000  0.000  0.000  0.000  0.000
 0.000  0.000  0.000  0.000  0.000
atom   13   Tr[ns(na)]=   3.0000000
atom   13   spin  1
eigenvalues:  0.6000000 0.6000000 0.6000000 0.6000000 0.6000000
 eigenvectors
 1   1.0000000  0.0000000  0.0000000  0.0000000  0.0000000
 2   0.0000000  1.0000000  0.0000000  0.0000000  0.0000000
 3   0.0000000  0.0000000  1.0000000  0.0000000  0.0000000
 4   0.0000000  0.0000000  0.0000000  1.0000000  0.0000000
 5   0.0000000  0.0000000  0.0000000  0.0000000  1.0000000
 occupations
 0.600  0.000  0.000  0.000  0.000
 0.000  0.600  0.000  0.000  0.000
 0.000  0.000  0.600  0.000  0.000
 0.000  0.000  0.000  0.600  0.000
 0.000  0.000  0.000  0.000  0.600
atom   13   spin  2
eigenvalues:  0.0000000 0.0000000 0.0000000 0.0000000 0.0000000
 eigenvectors
 1   1.0000000  0.0000000  0.0000000  0.0000000  0.0000000
 2   0.0000000  1.0000000  0.0000000  0.0000000  0.0000000
 3   0.0000000  0.0000000  1.0000000  0.0000000  0.0000000
 4   0.0000000  0.0000000  0.0000000  1.0000000  0.0000000
 5   0.0000000  0.0000000  0.0000000  0.0000000  1.0000000
 occupations
 0.000  0.000  0.000  0.000  0.000
 0.000  0.000  0.000  0.000  0.000
 0.000  0.000  0.000  0.000  0.000
 0.000  0.000  0.000  0.000  0.000
 0.000  0.000  0.000  0.000  0.000
atom   14   Tr[ns(na)]=   3.0000000
atom   14   spin  1
eigenvalues:  0.6000000 0.6000000 0.6000000 0.6000000 0.6000000
 eigenvectors
 1   1.0000000  0.0000000  0.0000000  0.0000000  0.0000000
 2   0.0000000  1.0000000  0.0000000  0.0000000  0.0000000
 3   0.0000000  0.0000000  1.0000000  0.0000000  0.0000000
 4   0.0000000  0.0000000  0.0000000  1.0000000  0.0000000
 5   0.0000000  0.0000000  0.0000000  0.0000000  1.0000000
 occupations
 0.600  0.000  0.000  0.000  0.000
 0.000  0.600  0.000  0.000  0.000
 0.000  0.000  0.600  0.000  0.000
 0.000  0.000  0.000  0.600  0.000
 0.000  0.000  0.000  0.000  0.600
atom   14   spin  2
eigenvalues:  0.0000000 0.0000000 0.0000000 0.0000000 0.0000000
 eigenvectors
 1   1.0000000  0.0000000  0.0000000  0.0000000  0.0000000
 2   0.0000000  1.0000000  0.0000000  0.0000000  0.0000000
 3   0.0000000  0.0000000  1.0000000  0.0000000  0.0000000
 4   0.0000000  0.0000000  0.0000000  1.0000000  0.0000000
 5   0.0000000  0.0000000  0.0000000  0.0000000  1.0000000
 occupations
 0.000  0.000  0.000  0.000  0.000
 0.000  0.000  0.000  0.000  0.000
 0.000  0.000  0.000  0.000  0.000
 0.000  0.000  0.000  0.000  0.000
 0.000  0.000  0.000  0.000  0.000
atom   15   Tr[ns(na)]=   3.0000000
atom   15   spin  1
eigenvalues:  0.6000000 0.6000000 0.6000000 0.6000000 0.6000000
 eigenvectors
 1   1.0000000  0.0000000  0.0000000  0.0000000  0.0000000
 2   0.0000000  1.0000000  0.0000000  0.0000000  0.0000000
 3   0.0000000  0.0000000  1.0000000  0.0000000  0.0000000
 4   0.0000000  0.0000000  0.0000000  1.0000000  0.0000000
 5   0.0000000  0.0000000  0.0000000  0.0000000  1.0000000
 occupations
 0.600  0.000  0.000  0.000  0.000
 0.000  0.600  0.000  0.000  0.000
 0.000  0.000  0.600  0.000  0.000
 0.000  0.000  0.000  0.600  0.000
 0.000  0.000  0.000  0.000  0.600
atom   15   spin  2
eigenvalues:  0.0000000 0.0000000 0.0000000 0.0000000 0.0000000
 eigenvectors
 1   1.0000000  0.0000000  0.0000000  0.0000000  0.0000000
 2   0.0000000  1.0000000  0.0000000  0.0000000  0.0000000
 3   0.0000000  0.0000000  1.0000000  0.0000000  0.0000000
 4   0.0000000  0.0000000  0.0000000  1.0000000  0.0000000
 5   0.0000000  0.0000000  0.0000000  0.0000000  1.0000000
 occupations
 0.000  0.000  0.000  0.000  0.000
 0.000  0.000  0.000  0.000  0.000
 0.000  0.000  0.000  0.000  0.000
 0.000  0.000  0.000  0.000  0.000
 0.000  0.000  0.000  0.000  0.000
atom   16   Tr[ns(na)]=   3.0000000
atom   16   spin  1
eigenvalues:  0.6000000 0.6000000 0.6000000 0.6000000 0.6000000
 eigenvectors
 1   1.0000000  0.0000000  0.0000000  0.0000000  0.0000000
 2   0.0000000  1.0000000  0.0000000  0.0000000  0.0000000
 3   0.0000000  0.0000000  1.0000000  0.0000000  0.0000000
 4   0.0000000  0.0000000  0.0000000  1.0000000  0.0000000
 5   0.0000000  0.0000000  0.0000000  0.0000000  1.0000000
 occupations
 0.600  0.000  0.000  0.000  0.000
 0.000  0.600  0.000  0.000  0.000
 0.000  0.000  0.600  0.000  0.000
 0.000  0.000  0.000  0.600  0.000
 0.000  0.000  0.000  0.000  0.600
atom   16   spin  2
eigenvalues:  0.0000000 0.0000000 0.0000000 0.0000000 0.0000000
 eigenvectors
 1   1.0000000  0.0000000  0.0000000  0.0000000  0.0000000
 2   0.0000000  1.0000000  0.0000000  0.0000000  0.0000000
 3   0.0000000  0.0000000  1.0000000  0.0000000  0.0000000
 4   0.0000000  0.0000000  0.0000000  1.0000000  0.0000000
 5   0.0000000  0.0000000  0.0000000  0.0000000  1.0000000
 occupations
 0.000  0.000  0.000  0.000  0.000
 0.000  0.000  0.000  0.000  0.000
 0.000  0.000  0.000  0.000  0.000
 0.000  0.000  0.000  0.000  0.000
 0.000  0.000  0.000  0.000  0.000
atom   17   Tr[ns(na)]=   3.0000000
atom   17   spin  1
eigenvalues:  0.6000000 0.6000000 0.6000000 0.6000000 0.6000000
 eigenvectors
 1   1.0000000  0.0000000  0.0000000  0.0000000  0.0000000
 2   0.0000000  1.0000000  0.0000000  0.0000000  0.0000000
 3   0.0000000  0.0000000  1.0000000  0.0000000  0.0000000
 4   0.0000000  0.0000000  0.0000000  1.0000000  0.0000000
 5   0.0000000  0.0000000  0.0000000  0.0000000  1.0000000
 occupations
 0.600  0.000  0.000  0.000  0.000
 0.000  0.600  0.000  0.000  0.000
 0.000  0.000  0.600  0.000  0.000
 0.000  0.000  0.000  0.600  0.000
 0.000  0.000  0.000  0.000  0.600
atom   17   spin  2
eigenvalues:  0.0000000 0.0000000 0.0000000 0.0000000 0.0000000
 eigenvectors
 1   1.0000000  0.0000000  0.0000000  0.0000000  0.0000000
 2   0.0000000  1.0000000  0.0000000  0.0000000  0.0000000
 3   0.0000000  0.0000000  1.0000000  0.0000000  0.0000000
 4   0.0000000  0.0000000  0.0000000  1.0000000  0.0000000
 5   0.0000000  0.0000000  0.0000000  0.0000000  1.0000000
 occupations
 0.000  0.000  0.000  0.000  0.000
 0.000  0.000  0.000  0.000  0.000
 0.000  0.000  0.000  0.000  0.000
 0.000  0.000  0.000  0.000  0.000
 0.000  0.000  0.000  0.000  0.000
atom   18   Tr[ns(na)]=   3.0000000
atom   18   spin  1
eigenvalues:  0.6000000 0.6000000 0.6000000 0.6000000 0.6000000
 eigenvectors
 1   1.0000000  0.0000000  0.0000000  0.0000000  0.0000000
 2   0.0000000  1.0000000  0.0000000  0.0000000  0.0000000
 3   0.0000000  0.0000000  1.0000000  0.0000000  0.0000000
 4   0.0000000  0.0000000  0.0000000  1.0000000  0.0000000
 5   0.0000000  0.0000000  0.0000000  0.0000000  1.0000000
 occupations
 0.600  0.000  0.000  0.000  0.000
 0.000  0.600  0.000  0.000  0.000
 0.000  0.000  0.600  0.000  0.000
 0.000  0.000  0.000  0.600  0.000
 0.000  0.000  0.000  0.000  0.600
atom   18   spin  2
eigenvalues:  0.0000000 0.0000000 0.0000000 0.0000000 0.0000000
 eigenvectors
 1   1.0000000  0.0000000  0.0000000  0.0000000  0.0000000
 2   0.0000000  1.0000000  0.0000000  0.0000000  0.0000000
 3   0.0000000  0.0000000  1.0000000  0.0000000  0.0000000
 4   0.0000000  0.0000000  0.0000000  1.0000000  0.0000000
 5   0.0000000  0.0000000  0.0000000  0.0000000  1.0000000
 occupations
 0.000  0.000  0.000  0.000  0.000
 0.000  0.000  0.000  0.000  0.000
 0.000  0.000  0.000  0.000  0.000
 0.000  0.000  0.000  0.000  0.000
 0.000  0.000  0.000  0.000  0.000
atom   19   Tr[ns(na)]=   3.0000000
atom   19   spin  1
eigenvalues:  0.6000000 0.6000000 0.6000000 0.6000000 0.6000000
 eigenvectors
 1   1.0000000  0.0000000  0.0000000  0.0000000  0.0000000
 2   0.0000000  1.0000000  0.0000000  0.0000000  0.0000000
 3   0.0000000  0.0000000  1.0000000  0.0000000  0.0000000
 4   0.0000000  0.0000000  0.0000000  1.0000000  0.0000000
 5   0.0000000  0.0000000  0.0000000  0.0000000  1.0000000
 occupations
 0.600  0.000  0.000  0.000  0.000
 0.000  0.600  0.000  0.000  0.000
 0.000  0.000  0.600  0.000  0.000
 0.000  0.000  0.000  0.600  0.000
 0.000  0.000  0.000  0.000  0.600
atom   19   spin  2
eigenvalues:  0.0000000 0.0000000 0.0000000 0.0000000 0.0000000
 eigenvectors
 1   1.0000000  0.0000000  0.0000000  0.0000000  0.0000000
 2   0.0000000  1.0000000  0.0000000  0.0000000  0.0000000
 3   0.0000000  0.0000000  1.0000000  0.0000000  0.0000000
 4   0.0000000  0.0000000  0.0000000  1.0000000  0.0000000
 5   0.0000000  0.0000000  0.0000000  0.0000000  1.0000000
 occupations
 0.000  0.000  0.000  0.000  0.000
 0.000  0.000  0.000  0.000  0.000
 0.000  0.000  0.000  0.000  0.000
 0.000  0.000  0.000  0.000  0.000
 0.000  0.000  0.000  0.000  0.000
atom   20   Tr[ns(na)]=   3.0000000
atom   20   spin  1
eigenvalues:  0.6000000 0.6000000 0.6000000 0.6000000 0.6000000
 eigenvectors
 1   1.0000000  0.0000000  0.0000000  0.0000000  0.0000000
 2   0.0000000  1.0000000  0.0000000  0.0000000  0.0000000
 3   0.0000000  0.0000000  1.0000000  0.0000000  0.0000000
 4   0.0000000  0.0000000  0.0000000  1.0000000  0.0000000
 5   0.0000000  0.0000000  0.0000000  0.0000000  1.0000000
 occupations
 0.600  0.000  0.000  0.000  0.000
 0.000  0.600  0.000  0.000  0.000
 0.000  0.000  0.600  0.000  0.000
 0.000  0.000  0.000  0.600  0.000
 0.000  0.000  0.000  0.000  0.600
atom   20   spin  2
eigenvalues:  0.0000000 0.0000000 0.0000000 0.0000000 0.0000000
 eigenvectors
 1   1.0000000  0.0000000  0.0000000  0.0000000  0.0000000
 2   0.0000000  1.0000000  0.0000000  0.0000000  0.0000000
 3   0.0000000  0.0000000  1.0000000  0.0000000  0.0000000
 4   0.0000000  0.0000000  0.0000000  1.0000000  0.0000000
 5   0.0000000  0.0000000  0.0000000  0.0000000  1.0000000
 occupations
 0.000  0.000  0.000  0.000  0.000
 0.000  0.000  0.000  0.000  0.000
 0.000  0.000  0.000  0.000  0.000
 0.000  0.000  0.000  0.000  0.000
 0.000  0.000  0.000  0.000  0.000
atom   21   Tr[ns(na)]=   3.0000000
atom   21   spin  1
eigenvalues:  0.6000000 0.6000000 0.6000000 0.6000000 0.6000000
 eigenvectors
 1   1.0000000  0.0000000  0.0000000  0.0000000  0.0000000
 2   0.0000000  1.0000000  0.0000000  0.0000000  0.0000000
 3   0.0000000  0.0000000  1.0000000  0.0000000  0.0000000
 4   0.0000000  0.0000000  0.0000000  1.0000000  0.0000000
 5   0.0000000  0.0000000  0.0000000  0.0000000  1.0000000
 occupations
 0.600  0.000  0.000  0.000  0.000
 0.000  0.600  0.000  0.000  0.000
 0.000  0.000  0.600  0.000  0.000
 0.000  0.000  0.000  0.600  0.000
 0.000  0.000  0.000  0.000  0.600
atom   21   spin  2
eigenvalues:  0.0000000 0.0000000 0.0000000 0.0000000 0.0000000
 eigenvectors
 1   1.0000000  0.0000000  0.0000000  0.0000000  0.0000000
 2   0.0000000  1.0000000  0.0000000  0.0000000  0.0000000
 3   0.0000000  0.0000000  1.0000000  0.0000000  0.0000000
 4   0.0000000  0.0000000  0.0000000  1.0000000  0.0000000
 5   0.0000000  0.0000000  0.0000000  0.0000000  1.0000000
 occupations
 0.000  0.000  0.000  0.000  0.000
 0.000  0.000  0.000  0.000  0.000
 0.000  0.000  0.000  0.000  0.000
 0.000  0.000  0.000  0.000  0.000
 0.000  0.000  0.000  0.000  0.000
atom   22   Tr[ns(na)]=   3.0000000
atom   22   spin  1
eigenvalues:  0.6000000 0.6000000 0.6000000 0.6000000 0.6000000
 eigenvectors
 1   1.0000000  0.0000000  0.0000000  0.0000000  0.0000000
 2   0.0000000  1.0000000  0.0000000  0.0000000  0.0000000
 3   0.0000000  0.0000000  1.0000000  0.0000000  0.0000000
 4   0.0000000  0.0000000  0.0000000  1.0000000  0.0000000
 5   0.0000000  0.0000000  0.0000000  0.0000000  1.0000000
 occupations
 0.600  0.000  0.000  0.000  0.000
 0.000  0.600  0.000  0.000  0.000
 0.000  0.000  0.600  0.000  0.000
 0.000  0.000  0.000  0.600  0.000
 0.000  0.000  0.000  0.000  0.600
atom   22   spin  2
eigenvalues:  0.0000000 0.0000000 0.0000000 0.0000000 0.0000000
 eigenvectors
 1   1.0000000  0.0000000  0.0000000  0.0000000  0.0000000
 2   0.0000000  1.0000000  0.0000000  0.0000000  0.0000000
 3   0.0000000  0.0000000  1.0000000  0.0000000  0.0000000
 4   0.0000000  0.0000000  0.0000000  1.0000000  0.0000000
 5   0.0000000  0.0000000  0.0000000  0.0000000  1.0000000
 occupations
 0.000  0.000  0.000  0.000  0.000
 0.000  0.000  0.000  0.000  0.000
 0.000  0.000  0.000  0.000  0.000
 0.000  0.000  0.000  0.000  0.000
 0.000  0.000  0.000  0.000  0.000
atom   23   Tr[ns(na)]=   3.0000000
atom   23   spin  1
eigenvalues:  0.6000000 0.6000000 0.6000000 0.6000000 0.6000000
 eigenvectors
 1   1.0000000  0.0000000  0.0000000  0.0000000  0.0000000
 2   0.0000000  1.0000000  0.0000000  0.0000000  0.0000000
 3   0.0000000  0.0000000  1.0000000  0.0000000  0.0000000
 4   0.0000000  0.0000000  0.0000000  1.0000000  0.0000000
 5   0.0000000  0.0000000  0.0000000  0.0000000  1.0000000
 occupations
 0.600  0.000  0.000  0.000  0.000
 0.000  0.600  0.000  0.000  0.000
 0.000  0.000  0.600  0.000  0.000
 0.000  0.000  0.000  0.600  0.000
 0.000  0.000  0.000  0.000  0.600
atom   23   spin  2
eigenvalues:  0.0000000 0.0000000 0.0000000 0.0000000 0.0000000
 eigenvectors
 1   1.0000000  0.0000000  0.0000000  0.0000000  0.0000000
 2   0.0000000  1.0000000  0.0000000  0.0000000  0.0000000
 3   0.0000000  0.0000000  1.0000000  0.0000000  0.0000000
 4   0.0000000  0.0000000  0.0000000  1.0000000  0.0000000
 5   0.0000000  0.0000000  0.0000000  0.0000000  1.0000000
 occupations
 0.000  0.000  0.000  0.000  0.000
 0.000  0.000  0.000  0.000  0.000
 0.000  0.000  0.000  0.000  0.000
 0.000  0.000  0.000  0.000  0.000
 0.000  0.000  0.000  0.000  0.000
atom   24   Tr[ns(na)]=   3.0000000
atom   24   spin  1
eigenvalues:  0.6000000 0.6000000 0.6000000 0.6000000 0.6000000
 eigenvectors
 1   1.0000000  0.0000000  0.0000000  0.0000000  0.0000000
 2   0.0000000  1.0000000  0.0000000  0.0000000  0.0000000
 3   0.0000000  0.0000000  1.0000000  0.0000000  0.0000000
 4   0.0000000  0.0000000  0.0000000  1.0000000  0.0000000
 5   0.0000000  0.0000000  0.0000000  0.0000000  1.0000000
 occupations
 0.600  0.000  0.000  0.000  0.000
 0.000  0.600  0.000  0.000  0.000
 0.000  0.000  0.600  0.000  0.000
 0.000  0.000  0.000  0.600  0.000
 0.000  0.000  0.000  0.000  0.600
atom   24   spin  2
eigenvalues:  0.0000000 0.0000000 0.0000000 0.0000000 0.0000000
 eigenvectors
 1   1.0000000  0.0000000  0.0000000  0.0000000  0.0000000
 2   0.0000000  1.0000000  0.0000000  0.0000000  0.0000000
 3   0.0000000  0.0000000  1.0000000  0.0000000  0.0000000
 4   0.0000000  0.0000000  0.0000000  1.0000000  0.0000000
 5   0.0000000  0.0000000  0.0000000  0.0000000  1.0000000
 occupations
 0.000  0.000  0.000  0.000  0.000
 0.000  0.000  0.000  0.000  0.000
 0.000  0.000  0.000  0.000  0.000
 0.000  0.000  0.000  0.000  0.000
 0.000  0.000  0.000  0.000  0.000
nsum =  72.0000000
 exit write_ns
 Atomic wfc used for LDA+U Projector are NOT orthogonalized
     Starting wfc are  480 atomic wfcs

     total cpu time spent up to now is     26.85 secs

     per-process dynamical memory:   113.4 Mb

     Self-consistent Calculation

     iteration #  1     ecut=    30.00 Ry     beta=0.30
     Davidson diagonalization with overlap
     ethr =  1.00E-02,  avg # of iterations =  2.4
 enter write_ns
U( 1) =  0.0000      U( 2) =  3.1000      U( 3) =  0.0000
alpha( 1) =  0.0000      alpha( 2) =  0.0000      alpha( 3) =  0.0000
atom    1   Tr[ns(na)]=   3.0136396
atom    1   spin  1
eigenvalues:  0.2164701 0.3211639 0.3268604 0.3782942 0.4312243
 eigenvectors
 1  -0.0050083 -0.0111894  0.0805271 -0.0033027  0.9966716
 2  -0.0107843 -0.8730245  0.1509556  0.4631450 -0.0205173
 3   0.0099835  0.1560307  0.9841783 -0.0298772 -0.0778148
 4  -0.1250931 -0.4567665  0.0460066 -0.8794578 -0.0123880
 5  -0.9920235  0.0687151  0.0020555  0.1055799 -0.0040297
 occupations
 0.430 -0.004 -0.000 -0.005  0.001
-0.004  0.334 -0.000  0.024  0.001
-0.000 -0.000  0.326 -0.002 -0.009
-0.005  0.024 -0.002  0.367  0.001
 0.001  0.001 -0.009  0.001  0.217
atom    1   spin  2
eigenvalues:  0.1597923 0.2436466 0.2467220 0.3204485 0.3690172
 eigenvectors
 1  -0.0031809 -0.0094519  0.1355769 -0.0020651  0.9907145
 2  -0.0262776 -0.9287759  0.1147407  0.3506386 -0.0239164
 3   0.0086792  0.1187055  0.9837471 -0.0159414 -0.1334962
 4  -0.1371313 -0.3432610  0.0263240 -0.9287563 -0.0092535
 5  -0.9901611  0.0732590  0.0014966  0.1191885 -0.0024366
 occupations
 0.368 -0.005 -0.000 -0.005  0.001
-0.005  0.253 -0.000  0.026  0.001
-0.000 -0.000  0.245 -0.002 -0.012
-0.005  0.026 -0.002  0.312  0.001
 0.001  0.001 -0.012  0.001  0.161
atom    2   Tr[ns(na)]=   2.9864173
atom    2   spin  1
eigenvalues:  0.2164727 0.3177263 0.3181533 0.3796032 0.4249266
 eigenvectors
 1  -0.0032469 -0.0055288  0.0911550 -0.0038882  0.9958085
 2   0.0006388 -0.0941944  0.9897475  0.0571351 -0.0908980
 3  -0.0111580 -0.9285550 -0.1082855  0.3548213  0.0061059
 4   0.1373371  0.3540356 -0.0190709  0.9248639  0.0077704
 5   0.9904560 -0.0595088  0.0010850 -0.1242944  0.0023144
 occupations
 0.424 -0.003 -0.000 -0.005  0.001
-0.003  0.326 -0.000  0.021  0.001
-0.000 -0.000  0.317 -0.001 -0.009
-0.005  0.021 -0.001  0.372  0.001
 0.001  0.001 -0.009  0.001  0.217
atom    2   spin  2
eigenvalues:  0.1600220 0.2409158 0.2417876 0.3225713 0.3642385
 eigenvectors
 1  -0.0023432 -0.0047535  0.1506024 -0.0025229  0.9885770
 2   0.0024550  0.0262092  0.9882620  0.0046742 -0.1504107
 3  -0.0229359 -0.9548425  0.0228610  0.2952504 -0.0073748
 4  -0.1556018 -0.2880810  0.0115924 -0.9447898 -0.0059312
 5  -0.9875477  0.0676439 -0.0002580  0.1420251 -0.0016137
 occupations
 0.363 -0.005 -0.000 -0.005  0.000
-0.005  0.249 -0.000  0.023  0.001
-0.000 -0.000  0.239 -0.001 -0.012
-0.005  0.023 -0.001  0.316  0.001
 0.000  0.001 -0.012  0.001  0.162
atom    3   Tr[ns(na)]=   3.0136396
atom    3   spin  1
eigenvalues:  0.2164701 0.3211639 0.3268604 0.3782942 0.4312243
 eigenvectors
 1   0.0050083  0.0111894  0.0805271  0.0033027  0.9966716
 2   0.0107843  0.8730245  0.1509556 -0.4631450 -0.0205173
 3   0.0099835  0.1560307 -0.9841783 -0.0298772  0.0778148
 4  -0.1250931 -0.4567665 -0.0460066 -0.8794578  0.0123880
 5  -0.9920235  0.0687151 -0.0020555  0.1055799  0.0040297
 occupations
 0.430 -0.004  0.000 -0.005 -0.001
-0.004  0.334  0.000  0.024 -0.001
 0.000  0.000  0.326  0.002 -0.009
-0.005  0.024  0.002  0.367 -0.001
-0.001 -0.001 -0.009 -0.001  0.217
atom    3   spin  2
eigenvalues:  0.1597923 0.2436466 0.2467220 0.3204485 0.3690172
 eigenvectors
 1   0.0031809  0.0094519  0.1355769  0.0020651  0.9907145
 2   0.0262776  0.9287759  0.1147407 -0.3506386 -0.0239164
 3   0.0086792  0.1187055 -0.9837471 -0.0159414  0.1334962
 4  -0.1371313 -0.3432610 -0.0263240 -0.9287563  0.0092535
 5  -0.9901611  0.0732590 -0.0014966  0.1191885  0.0024366
 occupations
 0.368 -0.005  0.000 -0.005 -0.001
-0.005  0.253  0.000  0.026 -0.001
 0.000  0.000  0.245  0.002 -0.012
-0.005  0.026  0.002  0.312 -0.001
-0.001 -0.001 -0.012 -0.001  0.161
atom    4   Tr[ns(na)]=   2.9864173
atom    4   spin  1
eigenvalues:  0.2164727 0.3177263 0.3181533 0.3796032 0.4249266
 eigenvectors
 1   0.0032469  0.0055288  0.0911550  0.0038882  0.9958085
 2   0.0006388 -0.0941944 -0.9897475  0.0571351  0.0908980
 3   0.0111580  0.9285550 -0.1082855 -0.3548213  0.0061059
 4   0.1373371  0.3540356  0.0190709  0.9248639 -0.0077704
 5   0.9904560 -0.0595088 -0.0010850 -0.1242944 -0.0023144
 occupations
 0.424 -0.003  0.000 -0.005 -0.001
-0.003  0.326  0.000  0.021 -0.001
 0.000  0.000  0.317  0.001 -0.009
-0.005  0.021  0.001  0.372 -0.001
-0.001 -0.001 -0.009 -0.001  0.217
atom    4   spin  2
eigenvalues:  0.1600220 0.2409158 0.2417876 0.3225713 0.3642385
 eigenvectors
 1   0.0023432  0.0047535  0.1506024  0.0025229  0.9885770
 2   0.0024550  0.0262092 -0.9882620  0.0046742  0.1504107
 3   0.0229359  0.9548425  0.0228610 -0.2952504 -0.0073748
 4  -0.1556018 -0.2880810 -0.0115924 -0.9447898  0.0059312
 5  -0.9875477  0.0676439  0.0002580  0.1420251  0.0016137
 occupations
 0.363 -0.005  0.000 -0.005 -0.000
-0.005  0.249  0.000  0.023 -0.001
 0.000  0.000  0.239  0.001 -0.012
-0.005  0.023  0.001  0.316 -0.001
-0.000 -0.001 -0.012 -0.001  0.162
atom    5   Tr[ns(na)]=   2.9843635
atom    5   spin  1
eigenvalues:  0.2118589 0.3191651 0.3209379 0.3759631 0.4284134
 eigenvectors
 1  -0.0000000 -0.0000000  0.0945819  0.0000000  0.9955171
 2  -0.0000000 -0.0000000 -0.9955171  0.0000000  0.0945819
 3  -0.0048203 -0.9187488  0.0000000  0.3948131 -0.0000000
 4   0.1518448  0.3895670  0.0000000  0.9083946 -0.0000000
 5  -0.9883926  0.0643290  0.0000000  0.1376294 -0.0000000
 occupations
 0.427 -0.004 -0.000 -0.007  0.000
-0.004  0.330 -0.000  0.020  0.000
-0.000 -0.000  0.318  0.000 -0.010
-0.007  0.020  0.000  0.368 -0.000
 0.000  0.000 -0.010 -0.000  0.213
atom    5   spin  2
eigenvalues:  0.1570902 0.2411302 0.2432621 0.3195374 0.3670053
 eigenvectors
 1  -0.0000000 -0.0000000  0.1545905  0.0000000  0.9879786
 2  -0.0000000 -0.0000000 -0.9879786  0.0000000  0.1545905
 3  -0.0218644 -0.9514209  0.0000000  0.3071159 -0.0000000
 4   0.1665086  0.2994334  0.0000000  0.9394756 -0.0000000
 5  -0.9857976  0.0716785  0.0000000  0.1518728 -0.0000000
 occupations
 0.366 -0.005 -0.000 -0.007  0.000
-0.005  0.251 -0.000  0.023  0.000
-0.000 -0.000  0.239  0.000 -0.013
-0.007  0.023  0.000  0.313 -0.000
 0.000  0.000 -0.013 -0.000  0.159
atom    6   Tr[ns(na)]=   2.9801830
atom    6   spin  1
eigenvalues:  0.2133384 0.3173608 0.3189860 0.3775793 0.4263727
 eigenvectors
 1  -0.0000000 -0.0000000  0.0988146  0.0000000  0.9951059
 2  -0.0000000 -0.0000000 -0.9951059  0.0000000  0.0988146
 3  -0.0106879 -0.9316497  0.0000000  0.3632004 -0.0000000
 4   0.1468269  0.3578220 -0.0000000  0.9221742 -0.0000000
 5  -0.9891045  0.0631837  0.0000000  0.1329669 -0.0000000
 occupations
 0.425 -0.004 -0.000 -0.006  0.000
-0.004  0.327 -0.000  0.020  0.000
-0.000 -0.000  0.316  0.000 -0.010
-0.006  0.020  0.000  0.371 -0.000
 0.000  0.000 -0.010 -0.000  0.214
atom    6   spin  2
eigenvalues:  0.1580307 0.2402754 0.2417331 0.3210699 0.3654368
 eigenvectors
 1  -0.0000000 -0.0000000  0.1593057  0.0000000  0.9872293
 2  -0.0000000 -0.0000000 -0.9872293  0.0000000  0.1593057
 3  -0.0248166 -0.9557171  0.0000000  0.2932387 -0.0000000
 4   0.1639180  0.2854688  0.0000000  0.9442661 -0.0000000
 5  -0.9861618  0.0715006  0.0000000  0.1495749 -0.0000000
 occupations
 0.364 -0.005 -0.000 -0.006  0.000
-0.005  0.249 -0.000  0.023  0.000
-0.000 -0.000  0.238  0.000 -0.013
-0.006  0.023  0.000  0.315 -0.000
 0.000  0.000 -0.013 -0.000  0.160
atom    7   Tr[ns(na)]=   2.9156065
atom    7   spin  1
eigenvalues:  0.2184542 0.3023559 0.3036512 0.3839287 0.4077567
 eigenvectors
 1  -0.0000000 -0.0000000  0.1335801  0.0000000  0.9910380
 2  -0.0000000 -0.0000000 -0.9910380  0.0000000  0.1335801
 3  -0.0406660 -0.9801309  0.0000000  0.1941383 -0.0000000
 4   0.1595737  0.1854343  0.0000000  0.9696135 -0.0000000
 5  -0.9863481  0.0704097  0.0000000  0.1488623 -0.0000000
 occupations
 0.407 -0.005 -0.000 -0.003  0.000
-0.005  0.307 -0.000  0.016  0.000
-0.000 -0.000  0.301  0.000 -0.011
-0.003  0.016  0.000  0.381 -0.000
 0.000  0.000 -0.011 -0.000  0.220
atom    7   spin  2
eigenvalues:  0.1606001 0.2313118 0.2316910 0.3259544 0.3499027
 eigenvectors
 1  -0.0000000 -0.0000000  0.1940522  0.0000000  0.9809912
 2  -0.0000000 -0.0000000 -0.9809912  0.0000000  0.1940522
 3  -0.0394268 -0.9791066  0.0000000  0.1994889 -0.0000000
 4   0.1937784  0.1883619  0.0000000  0.9627927 -0.0000000
 5  -0.9802528  0.0766165  0.0000000  0.1823032 -0.0000000
 occupations
 0.349 -0.005 -0.000 -0.004  0.000
-0.005  0.236 -0.000  0.019  0.000
-0.000 -0.000  0.229  0.000 -0.013
-0.004  0.019  0.000  0.323 -0.000
 0.000  0.000 -0.013 -0.000  0.163
atom    8   Tr[ns(na)]=   3.4701017
atom    8   spin  1
eigenvalues:  0.2456793 0.3778002 0.4235558 0.4322626 0.4887937
 eigenvectors
 1  -0.0000000 -0.0000000  0.0920876  0.0000000  0.9957509
 2   0.2095870 -0.6038907  0.0000000 -0.7690184  0.0000000
 3   0.0000000 -0.0000000 -0.9957509  0.0000000  0.0920876
 4  -0.0630455  0.7765036 -0.0000000 -0.6269509  0.0000000
 5  -0.9757554 -0.1798839  0.0000000 -0.1246724 -0.0000000
 occupations
 0.484  0.017 -0.000  0.016  0.000
 0.017  0.414 -0.000 -0.024  0.000
-0.000 -0.000  0.422  0.000 -0.016
 0.016 -0.024  0.000  0.401 -0.000
 0.000  0.000 -0.016 -0.000  0.247
atom    8   spin  2
eigenvalues:  0.1590357 0.2883223 0.3140855 0.3304299 0.4101367
 eigenvectors
 1  -0.0000000 -0.0000000  0.1465154  0.0000000  0.9892084
 2  -0.1372703  0.9067315  0.0000000  0.3987415 -0.0000000
 3  -0.0000000 -0.0000000 -0.9892084  0.0000000  0.1465154
 4  -0.1395840 -0.4162426  0.0000000  0.8984756 -0.0000000
 5  -0.9806494 -0.0676761  0.0000000 -0.1837030 -0.0000000
 occupations
 0.406  0.011 -0.000  0.017  0.000
 0.011  0.296 -0.000 -0.014  0.000
-0.000 -0.000  0.311  0.000 -0.022
 0.017 -0.014  0.000  0.326 -0.000
 0.000  0.000 -0.022 -0.000  0.162
atom    9   Tr[ns(na)]=   2.9765612
atom    9   spin  1
eigenvalues:  0.2124671 0.3153417 0.3203890 0.3793052 0.4232279
 eigenvectors
 1  -0.0077252 -0.0068999  0.1052856 -0.0093614  0.9943440
 2   0.0035828  0.0106753  0.9938724  0.0332175 -0.1048210
 3  -0.0117030 -0.9548164 -0.0000395  0.2969401 -0.0039168
 4  -0.1434815 -0.2920231  0.0335888 -0.9448620 -0.0155932
 5  -0.9895472  0.0537273 -0.0020932  0.1336838 -0.0058348
 occupations
 0.422 -0.003 -0.000 -0.006  0.002
-0.003  0.326 -0.001  0.017  0.001
-0.000 -0.001  0.314 -0.002 -0.011
-0.006  0.017 -0.002  0.375  0.002
 0.002  0.001 -0.011  0.002  0.214
atom    9   spin  2
eigenvalues:  0.1574479 0.2397004 0.2431983 0.3226609 0.3628229
 eigenvectors
 1  -0.0056301 -0.0061782  0.1606402 -0.0054332  0.9869627
 2   0.0043689  0.0519343  0.9856894  0.0095106 -0.1600305
 3  -0.0222088 -0.9649036  0.0464569  0.2572118 -0.0123122
 4  -0.1610916 -0.2495801  0.0212565 -0.9545586 -0.0111959
 5  -0.9866638  0.0627329 -0.0010683  0.1501333 -0.0042354
 occupations
 0.362 -0.004 -0.000 -0.006  0.001
-0.004  0.249 -0.001  0.020  0.001
-0.000 -0.001  0.238 -0.002 -0.013
-0.006  0.020 -0.002  0.318  0.001
 0.001  0.001 -0.013  0.001  0.160
atom   10   Tr[ns(na)]=   3.0217670
atom   10   spin  1
eigenvalues:  0.2071217 0.3274132 0.3332689 0.3776252 0.4329511
 eigenvectors
 1  -0.0198482 -0.0089360  0.0922584 -0.0278052  0.9951088
 2   0.0274335  0.0229470  0.9885932  0.1171573 -0.0876274
 3  -0.0032845  0.9358567  0.0197646 -0.3517950 -0.0033238
 4  -0.1182451 -0.3493114  0.1168295 -0.9211845 -0.0420664
 5   0.9924015 -0.0393363 -0.0114973 -0.1147186  0.0173014
 occupations
 0.432 -0.002 -0.002 -0.007  0.004
-0.002  0.339 -0.002  0.015  0.002
-0.002 -0.002  0.327 -0.005 -0.011
-0.007  0.015 -0.005  0.372  0.005
 0.004  0.002 -0.011  0.005  0.208
atom   10   spin  2
eigenvalues:  0.1539153 0.2467411 0.2519764 0.3204296 0.3703246
 eigenvectors
 1  -0.0155272 -0.0084958  0.1427793 -0.0176967  0.9894380
 2   0.0198421  0.1222190  0.9817534  0.0363942 -0.1396586
 3  -0.0121045 -0.9538101  0.1059428  0.2802283 -0.0186557
 4  -0.1400038 -0.2692540  0.0671283 -0.9499592 -0.0311864
 5  -0.9897563  0.0523351  0.0066506  0.1319545 -0.0136824
 occupations
 0.369 -0.004 -0.001 -0.006  0.003
-0.004  0.257 -0.002  0.018  0.001
-0.001 -0.002  0.245 -0.004 -0.013
-0.006  0.018 -0.004  0.316  0.004
 0.003  0.001 -0.013  0.004  0.156
atom   11   Tr[ns(na)]=   2.9765612
atom   11   spin  1
eigenvalues:  0.2124671 0.3153417 0.3203890 0.3793052 0.4232279
 eigenvectors
 1   0.0077252  0.0068999  0.1052856  0.0093614  0.9943440
 2   0.0035828  0.0106753 -0.9938724  0.0332175  0.1048210
 3   0.0117030  0.9548164 -0.0000395 -0.2969401 -0.0039168
 4  -0.1434815 -0.2920231 -0.0335888 -0.9448620  0.0155932
 5  -0.9895472  0.0537273  0.0020932  0.1336838  0.0058348
 occupations
 0.422 -0.003  0.000 -0.006 -0.002
-0.003  0.326  0.001  0.017 -0.001
 0.000  0.001  0.314  0.002 -0.011
-0.006  0.017  0.002  0.375 -0.002
-0.002 -0.001 -0.011 -0.002  0.214
atom   11   spin  2
eigenvalues:  0.1574479 0.2397004 0.2431983 0.3226609 0.3628229
 eigenvectors
 1   0.0056301  0.0061782  0.1606402  0.0054332  0.9869627
 2   0.0043689  0.0519343 -0.9856894  0.0095106  0.1600305
 3   0.0222088  0.9649036  0.0464569 -0.2572118 -0.0123122
 4  -0.1610916 -0.2495801 -0.0212565 -0.9545586  0.0111959
 5  -0.9866638  0.0627329  0.0010683  0.1501333  0.0042354
 occupations
 0.362 -0.004  0.000 -0.006 -0.001
-0.004  0.249  0.001  0.020 -0.001
 0.000  0.001  0.238  0.002 -0.013
-0.006  0.020  0.002  0.318 -0.001
-0.001 -0.001 -0.013 -0.001  0.160
atom   12   Tr[ns(na)]=   3.0217670
atom   12   spin  1
eigenvalues:  0.2071217 0.3274132 0.3332689 0.3776252 0.4329511
 eigenvectors
 1   0.0198482  0.0089360  0.0922584  0.0278052  0.9951088
 2   0.0274335  0.0229470 -0.9885932  0.1171573  0.0876274
 3   0.0032845 -0.9358567  0.0197646  0.3517950 -0.0033238
 4  -0.1182451 -0.3493114 -0.1168295 -0.9211845  0.0420664
 5   0.9924015 -0.0393363  0.0114973 -0.1147186 -0.0173014
 occupations
 0.432 -0.002  0.002 -0.007 -0.004
-0.002  0.339  0.002  0.015 -0.002
 0.002  0.002  0.327  0.005 -0.011
-0.007  0.015  0.005  0.372 -0.005
-0.004 -0.002 -0.011 -0.005  0.208
atom   12   spin  2
eigenvalues:  0.1539153 0.2467411 0.2519764 0.3204296 0.3703246
 eigenvectors
 1   0.0155272  0.0084958  0.1427793  0.0176967  0.9894380
 2   0.0198421  0.1222190 -0.9817534  0.0363942  0.1396586
 3   0.0121045  0.9538101  0.1059428 -0.2802283 -0.0186557
 4  -0.1400038 -0.2692540 -0.0671283 -0.9499592  0.0311864
 5  -0.9897563  0.0523351 -0.0066506  0.1319545  0.0136824
 occupations
 0.369 -0.004  0.001 -0.006 -0.003
-0.004  0.257  0.002  0.018 -0.001
 0.001  0.002  0.245  0.004 -0.013
-0.006  0.018  0.004  0.316 -0.004
-0.003 -0.001 -0.013 -0.004  0.156
atom   13   Tr[ns(na)]=   2.9156065
atom   13   spin  1
eigenvalues:  0.2184542 0.3023559 0.3036512 0.3839287 0.4077567
 eigenvectors
 1  -0.0000000 -0.0000000 -0.1335801  0.0000000  0.9910380
 2  -0.0000000  0.0000000  0.9910380  0.0000000  0.1335801
 3  -0.0406660  0.9801309 -0.0000000  0.1941383 -0.0000000
 4   0.1595737 -0.1854343  0.0000000  0.9696135 -0.0000000
 5  -0.9863481 -0.0704097  0.0000000  0.1488623 -0.0000000
 occupations
 0.407  0.005 -0.000 -0.003  0.000
 0.005  0.307 -0.000 -0.016  0.000
-0.000 -0.000  0.301  0.000  0.011
-0.003 -0.016  0.000  0.381 -0.000
 0.000  0.000  0.011 -0.000  0.220
atom   13   spin  2
eigenvalues:  0.1606001 0.2313118 0.2316910 0.3259544 0.3499027
 eigenvectors
 1  -0.0000000 -0.0000000 -0.1940522  0.0000000  0.9809912
 2  -0.0000000  0.0000000  0.9809912  0.0000000  0.1940522
 3  -0.0394268  0.9791066 -0.0000000  0.1994889 -0.0000000
 4   0.1937784 -0.1883619  0.0000000  0.9627927 -0.0000000
 5  -0.9802528 -0.0766165  0.0000000  0.1823032 -0.0000000
 occupations
 0.349  0.005 -0.000 -0.004  0.000
 0.005  0.236 -0.000 -0.019  0.000
-0.000 -0.000  0.229  0.000  0.013
-0.004 -0.019  0.000  0.323 -0.000
 0.000  0.000  0.013 -0.000  0.163
atom   14   Tr[ns(na)]=   3.4701017
atom   14   spin  1
eigenvalues:  0.2456793 0.3778002 0.4235558 0.4322626 0.4887937
 eigenvectors
 1  -0.0000000 -0.0000000 -0.0920876  0.0000000  0.9957509
 2   0.2095870  0.6038907  0.0000000 -0.7690184  0.0000000
 3   0.0000000  0.0000000  0.9957509  0.0000000  0.0920876
 4   0.0630455  0.7765036 -0.0000000  0.6269509 -0.0000000
 5  -0.9757554  0.1798839 -0.0000000 -0.1246724 -0.0000000
 occupations
 0.484 -0.017 -0.000  0.016  0.000
-0.017  0.414 -0.000  0.024  0.000
-0.000 -0.000  0.422  0.000  0.016
 0.016  0.024  0.000  0.401 -0.000
 0.000  0.000  0.016 -0.000  0.247
atom   14   spin  2
eigenvalues:  0.1590357 0.2883223 0.3140855 0.3304299 0.4101367
 eigenvectors
 1  -0.0000000 -0.0000000 -0.1465154  0.0000000  0.9892084
 2   0.1372703  0.9067315  0.0000000 -0.3987415  0.0000000
 3  -0.0000000 -0.0000000  0.9892084  0.0000000  0.1465154
 4   0.1395840 -0.4162426  0.0000000 -0.8984756  0.0000000
 5   0.9806494 -0.0676761 -0.0000000  0.1837030  0.0000000
 occupations
 0.406 -0.011 -0.000  0.017  0.000
-0.011  0.296 -0.000  0.014  0.000
-0.000 -0.000  0.311  0.000  0.022
 0.017  0.014  0.000  0.326 -0.000
 0.000  0.000  0.022 -0.000  0.162
atom   15   Tr[ns(na)]=   2.9765612
atom   15   spin  1
eigenvalues:  0.2124671 0.3153417 0.3203890 0.3793052 0.4232279
 eigenvectors
 1   0.0077252 -0.0068999 -0.1052856  0.0093614  0.9943440
 2   0.0035828 -0.0106753  0.9938724  0.0332175  0.1048210
 3   0.0117030 -0.9548164  0.0000395 -0.2969401 -0.0039168
 4  -0.1434815  0.2920231  0.0335888 -0.9448620  0.0155932
 5  -0.9895472 -0.0537273 -0.0020932  0.1336838  0.0058348
 occupations
 0.422  0.003 -0.000 -0.006 -0.002
 0.003  0.326  0.001 -0.017  0.001
-0.000  0.001  0.314 -0.002  0.011
-0.006 -0.017 -0.002  0.375 -0.002
-0.002  0.001  0.011 -0.002  0.214
atom   15   spin  2
eigenvalues:  0.1574479 0.2397004 0.2431983 0.3226609 0.3628229
 eigenvectors
 1   0.0056301 -0.0061782 -0.1606402  0.0054332  0.9869627
 2   0.0043689 -0.0519343  0.9856894  0.0095106  0.1600305
 3   0.0222088 -0.9649036 -0.0464569 -0.2572118 -0.0123122
 4  -0.1610916  0.2495801  0.0212565 -0.9545586  0.0111959
 5  -0.9866638 -0.0627329 -0.0010683  0.1501333  0.0042354
 occupations
 0.362  0.004 -0.000 -0.006 -0.001
 0.004  0.249  0.001 -0.020  0.001
-0.000  0.001  0.238 -0.002  0.013
-0.006 -0.020 -0.002  0.318 -0.001
-0.001  0.001  0.013 -0.001  0.160
atom   16   Tr[ns(na)]=   3.0217670
atom   16   spin  1
eigenvalues:  0.2071217 0.3274132 0.3332689 0.3776252 0.4329511
 eigenvectors
 1   0.0198482 -0.0089360 -0.0922584  0.0278052  0.9951088
 2   0.0274335 -0.0229470  0.9885932  0.1171573  0.0876274
 3  -0.0032845 -0.9358567  0.0197646 -0.3517950  0.0033238
 4   0.1182451 -0.3493114 -0.1168295  0.9211845 -0.0420664
 5   0.9924015  0.0393363 -0.0114973 -0.1147186 -0.0173014
 occupations
 0.432  0.002 -0.002 -0.007 -0.004
 0.002  0.339  0.002 -0.015  0.002
-0.002  0.002  0.327 -0.005  0.011
-0.007 -0.015 -0.005  0.372 -0.005
-0.004  0.002  0.011 -0.005  0.208
atom   16   spin  2
eigenvalues:  0.1539153 0.2467411 0.2519764 0.3204296 0.3703246
 eigenvectors
 1   0.0155272 -0.0084958 -0.1427793  0.0176967  0.9894380
 2   0.0198421 -0.1222190  0.9817534  0.0363942  0.1396586
 3   0.0121045 -0.9538101 -0.1059428 -0.2802283 -0.0186557
 4  -0.1400038  0.2692540  0.0671283 -0.9499592  0.0311864
 5  -0.9897563 -0.0523351  0.0066506  0.1319545  0.0136824
 occupations
 0.369  0.004 -0.001 -0.006 -0.003
 0.004  0.257  0.002 -0.018  0.001
-0.001  0.002  0.245 -0.004  0.013
-0.006 -0.018 -0.004  0.316 -0.004
-0.003  0.001  0.013 -0.004  0.156
atom   17   Tr[ns(na)]=   2.9765612
atom   17   spin  1
eigenvalues:  0.2124671 0.3153417 0.3203890 0.3793052 0.4232279
 eigenvectors
 1  -0.0077252  0.0068999 -0.1052856 -0.0093614  0.9943440
 2   0.0035828 -0.0106753 -0.9938724  0.0332175 -0.1048210
 3  -0.0117030  0.9548164  0.0000395  0.2969401 -0.0039168
 4  -0.1434815  0.2920231 -0.0335888 -0.9448620 -0.0155932
 5  -0.9895472 -0.0537273  0.0020932  0.1336838 -0.0058348
 occupations
 0.422  0.003  0.000 -0.006  0.002
 0.003  0.326 -0.001 -0.017 -0.001
 0.000 -0.001  0.314  0.002  0.011
-0.006 -0.017  0.002  0.375  0.002
 0.002 -0.001  0.011  0.002  0.214
atom   17   spin  2
eigenvalues:  0.1574479 0.2397004 0.2431983 0.3226609 0.3628229
 eigenvectors
 1  -0.0056301  0.0061782 -0.1606402 -0.0054332  0.9869627
 2   0.0043689 -0.0519343 -0.9856894  0.0095106 -0.1600305
 3  -0.0222088  0.9649036 -0.0464569  0.2572118 -0.0123122
 4  -0.1610916  0.2495801 -0.0212565 -0.9545586 -0.0111959
 5  -0.9866638 -0.0627329  0.0010683  0.1501333 -0.0042354
 occupations
 0.362  0.004  0.000 -0.006  0.001
 0.004  0.249 -0.001 -0.020 -0.001
 0.000 -0.001  0.238  0.002  0.013
-0.006 -0.020  0.002  0.318  0.001
 0.001 -0.001  0.013  0.001  0.160
atom   18   Tr[ns(na)]=   3.0217670
atom   18   spin  1
eigenvalues:  0.2071217 0.3274132 0.3332689 0.3776252 0.4329511
 eigenvectors
 1  -0.0198482  0.0089360 -0.0922584 -0.0278052  0.9951088
 2   0.0274335 -0.0229470 -0.9885932  0.1171573 -0.0876274
 3   0.0032845  0.9358567  0.0197646  0.3517950  0.0033238
 4   0.1182451 -0.3493114  0.1168295  0.9211845  0.0420664
 5   0.9924015  0.0393363  0.0114973 -0.1147186  0.0173014
 occupations
 0.432  0.002  0.002 -0.007  0.004
 0.002  0.339 -0.002 -0.015 -0.002
 0.002 -0.002  0.327  0.005  0.011
-0.007 -0.015  0.005  0.372  0.005
 0.004 -0.002  0.011  0.005  0.208
atom   18   spin  2
eigenvalues:  0.1539153 0.2467411 0.2519764 0.3204296 0.3703246
 eigenvectors
 1  -0.0155272  0.0084958 -0.1427793 -0.0176967  0.9894380
 2   0.0198421 -0.1222190 -0.9817534  0.0363942 -0.1396586
 3  -0.0121045  0.9538101 -0.1059428  0.2802283 -0.0186557
 4  -0.1400038  0.2692540 -0.0671283 -0.9499592 -0.0311864
 5  -0.9897563 -0.0523351 -0.0066506  0.1319545 -0.0136824
 occupations
 0.369  0.004  0.001 -0.006  0.003
 0.004  0.257 -0.002 -0.018 -0.001
 0.001 -0.002  0.245  0.004  0.013
-0.006 -0.018  0.004  0.316  0.004
 0.003 -0.001  0.013  0.004  0.156
atom   19   Tr[ns(na)]=   3.0136396
atom   19   spin  1
eigenvalues:  0.2164701 0.3211639 0.3268604 0.3782942 0.4312243
 eigenvectors
 1   0.0050083 -0.0111894 -0.0805271  0.0033027  0.9966716
 2   0.0107843 -0.8730245 -0.1509556 -0.4631450 -0.0205173
 3   0.0099835 -0.1560307  0.9841783 -0.0298772  0.0778148
 4  -0.1250931  0.4567665  0.0460066 -0.8794578  0.0123880
 5  -0.9920235 -0.0687151  0.0020555  0.1055799  0.0040297
 occupations
 0.430  0.004 -0.000 -0.005 -0.001
 0.004  0.334  0.000 -0.024  0.001
-0.000  0.000  0.326 -0.002  0.009
-0.005 -0.024 -0.002  0.367 -0.001
-0.001  0.001  0.009 -0.001  0.217
atom   19   spin  2
eigenvalues:  0.1597923 0.2436466 0.2467220 0.3204485 0.3690172
 eigenvectors
 1   0.0031809 -0.0094519 -0.1355769  0.0020651  0.9907145
 2   0.0262776 -0.9287759 -0.1147407 -0.3506386 -0.0239164
 3   0.0086792 -0.1187055  0.9837471 -0.0159414  0.1334962
 4  -0.1371313  0.3432610  0.0263240 -0.9287563  0.0092535
 5  -0.9901611 -0.0732590  0.0014966  0.1191885  0.0024366
 occupations
 0.368  0.005 -0.000 -0.005 -0.001
 0.005  0.253  0.000 -0.026  0.001
-0.000  0.000  0.245 -0.002  0.012
-0.005 -0.026 -0.002  0.312 -0.001
-0.001  0.001  0.012 -0.001  0.161
atom   20   Tr[ns(na)]=   2.9864173
atom   20   spin  1
eigenvalues:  0.2164727 0.3177263 0.3181533 0.3796032 0.4249266
 eigenvectors
 1   0.0032469 -0.0055288 -0.0911550  0.0038882  0.9958085
 2   0.0006388  0.0941944  0.9897475  0.0571351  0.0908980
 3   0.0111580 -0.9285550  0.1082855 -0.3548213  0.0061059
 4   0.1373371 -0.3540356 -0.0190709  0.9248639 -0.0077704
 5   0.9904560  0.0595088  0.0010850 -0.1242944 -0.0023144
 occupations
 0.424  0.003 -0.000 -0.005 -0.001
 0.003  0.326  0.000 -0.021  0.001
-0.000  0.000  0.317 -0.001  0.009
-0.005 -0.021 -0.001  0.372 -0.001
-0.001  0.001  0.009 -0.001  0.217
atom   20   spin  2
eigenvalues:  0.1600220 0.2409158 0.2417876 0.3225713 0.3642385
 eigenvectors
 1   0.0023432 -0.0047535 -0.1506024  0.0025229  0.9885770
 2   0.0024550 -0.0262092  0.9882620  0.0046742  0.1504107
 3   0.0229359 -0.9548425 -0.0228610 -0.2952504 -0.0073748
 4  -0.1556018  0.2880810  0.0115924 -0.9447898  0.0059312
 5  -0.9875477 -0.0676439 -0.0002580  0.1420251  0.0016137
 occupations
 0.363  0.005 -0.000 -0.005 -0.000
 0.005  0.249  0.000 -0.023  0.001
-0.000  0.000  0.239 -0.001  0.012
-0.005 -0.023 -0.001  0.316 -0.001
-0.000  0.001  0.012 -0.001  0.162
atom   21   Tr[ns(na)]=   3.0136396
atom   21   spin  1
eigenvalues:  0.2164701 0.3211639 0.3268604 0.3782942 0.4312243
 eigenvectors
 1  -0.0050083  0.0111894 -0.0805271 -0.0033027  0.9966716
 2  -0.0107843  0.8730245 -0.1509556  0.4631450 -0.0205173
 3   0.0099835 -0.1560307 -0.9841783 -0.0298772 -0.0778148
 4  -0.1250931  0.4567665 -0.0460066 -0.8794578 -0.0123880
 5  -0.9920235 -0.0687151 -0.0020555  0.1055799 -0.0040297
 occupations
 0.430  0.004  0.000 -0.005  0.001
 0.004  0.334 -0.000 -0.024 -0.001
 0.000 -0.000  0.326  0.002  0.009
-0.005 -0.024  0.002  0.367  0.001
 0.001 -0.001  0.009  0.001  0.217
atom   21   spin  2
eigenvalues:  0.1597923 0.2436466 0.2467220 0.3204485 0.3690172
 eigenvectors
 1  -0.0031809  0.0094519 -0.1355769 -0.0020651  0.9907145
 2  -0.0262776  0.9287759 -0.1147407  0.3506386 -0.0239164
 3   0.0086792 -0.1187055 -0.9837471 -0.0159414 -0.1334962
 4  -0.1371313  0.3432610 -0.0263240 -0.9287563 -0.0092535
 5  -0.9901611 -0.0732590 -0.0014966  0.1191885 -0.0024366
 occupations
 0.368  0.005  0.000 -0.005  0.001
 0.005  0.253 -0.000 -0.026 -0.001
 0.000 -0.000  0.245  0.002  0.012
-0.005 -0.026  0.002  0.312  0.001
 0.001 -0.001  0.012  0.001  0.161
atom   22   Tr[ns(na)]=   2.9864173
atom   22   spin  1
eigenvalues:  0.2164727 0.3177263 0.3181533 0.3796032 0.4249266
 eigenvectors
 1  -0.0032469  0.0055288 -0.0911550 -0.0038882  0.9958085
 2   0.0006388  0.0941944 -0.9897475  0.0571351 -0.0908980
 3  -0.0111580  0.9285550  0.1082855  0.3548213  0.0061059
 4   0.1373371 -0.3540356  0.0190709  0.9248639  0.0077704
 5   0.9904560  0.0595088 -0.0010850 -0.1242944  0.0023144
 occupations
 0.424  0.003  0.000 -0.005  0.001
 0.003  0.326 -0.000 -0.021 -0.001
 0.000 -0.000  0.317  0.001  0.009
-0.005 -0.021  0.001  0.372  0.001
 0.001 -0.001  0.009  0.001  0.217
atom   22   spin  2
eigenvalues:  0.1600220 0.2409158 0.2417876 0.3225713 0.3642385
 eigenvectors
 1  -0.0023432  0.0047535 -0.1506024 -0.0025229  0.9885770
 2   0.0024550 -0.0262092 -0.9882620  0.0046742 -0.1504107
 3  -0.0229359  0.9548425 -0.0228610  0.2952504 -0.0073748
 4  -0.1556018  0.2880810 -0.0115924 -0.9447898 -0.0059312
 5  -0.9875477 -0.0676439  0.0002580  0.1420251 -0.0016137
 occupations
 0.363  0.005  0.000 -0.005  0.000
 0.005  0.249 -0.000 -0.023 -0.001
 0.000 -0.000  0.239  0.001  0.012
-0.005 -0.023  0.001  0.316  0.001
 0.000 -0.001  0.012  0.001  0.162
atom   23   Tr[ns(na)]=   2.9843635
atom   23   spin  1
eigenvalues:  0.2118589 0.3191651 0.3209379 0.3759631 0.4284134
 eigenvectors
 1  -0.0000000 -0.0000000 -0.0945819  0.0000000  0.9955171
 2  -0.0000000  0.0000000  0.9955171  0.0000000  0.0945819
 3  -0.0048203  0.9187488 -0.0000000  0.3948131 -0.0000000
 4  -0.1518448  0.3895670 -0.0000000 -0.9083946  0.0000000
 5   0.9883926  0.0643290 -0.0000000 -0.1376294  0.0000000
 occupations
 0.427  0.004 -0.000 -0.007  0.000
 0.004  0.330 -0.000 -0.020  0.000
-0.000 -0.000  0.318  0.000  0.010
-0.007 -0.020  0.000  0.368 -0.000
 0.000  0.000  0.010 -0.000  0.213
atom   23   spin  2
eigenvalues:  0.1570902 0.2411302 0.2432621 0.3195374 0.3670053
 eigenvectors
 1  -0.0000000 -0.0000000 -0.1545905  0.0000000  0.9879786
 2  -0.0000000  0.0000000  0.9879786  0.0000000  0.1545905
 3  -0.0218644  0.9514209 -0.0000000  0.3071159 -0.0000000
 4   0.1665086 -0.2994334  0.0000000  0.9394756 -0.0000000
 5  -0.9857976 -0.0716785  0.0000000  0.1518728 -0.0000000
 occupations
 0.366  0.005 -0.000 -0.007  0.000
 0.005  0.251 -0.000 -0.023  0.000
-0.000 -0.000  0.239  0.000  0.013
-0.007 -0.023  0.000  0.313 -0.000
 0.000  0.000  0.013 -0.000  0.159
atom   24   Tr[ns(na)]=   2.9801830
atom   24   spin  1
eigenvalues:  0.2133384 0.3173608 0.3189860 0.3775793 0.4263727
 eigenvectors
 1  -0.0000000 -0.0000000 -0.0988146  0.0000000  0.9951059
 2  -0.0000000  0.0000000  0.9951059  0.0000000  0.0988146
 3  -0.0106879  0.9316497 -0.0000000  0.3632004 -0.0000000
 4   0.1468269 -0.3578220  0.0000000  0.9221742 -0.0000000
 5  -0.9891045 -0.0631837  0.0000000  0.1329669 -0.0000000
 occupations
 0.425  0.004 -0.000 -0.006  0.000
 0.004  0.327 -0.000 -0.020  0.000
-0.000 -0.000  0.316  0.000  0.010
-0.006 -0.020  0.000  0.371 -0.000
 0.000  0.000  0.010 -0.000  0.214
atom   24   spin  2
eigenvalues:  0.1580307 0.2402754 0.2417331 0.3210699 0.3654368
 eigenvectors
 1  -0.0000000 -0.0000000 -0.1593057  0.0000000  0.9872293
 2  -0.0000000  0.0000000  0.9872293  0.0000000  0.1593057
 3  -0.0248166  0.9557171 -0.0000000  0.2932387 -0.0000000
 4   0.1639180 -0.2854688  0.0000000  0.9442661 -0.0000000
 5  -0.9861618 -0.0715006  0.0000000  0.1495749 -0.0000000
 occupations
 0.364  0.005 -0.000 -0.006  0.000
 0.005  0.249 -0.000 -0.023  0.000
-0.000 -0.000  0.238  0.000  0.013
-0.006 -0.023  0.000  0.315 -0.000
 0.000  0.000  0.013 -0.000  0.160
nsum =  72.6940499
 exit write_ns

     negative rho (up, down):  0.908E-02 0.999E-02

     total cpu time spent up to now is     89.49 secs

     total energy              =   -5389.42861689 Ry
     Harris-Foulkes estimate   =   -5397.52658198 Ry
     estimated scf accuracy    <      51.58792714 Ry

     total magnetization       =     0.00 Bohr mag/cell
     absolute magnetization    =    11.74 Bohr mag/cell

     iteration #  2     ecut=    30.00 Ry     beta=0.30
     Davidson diagonalization with overlap
     ethr =  7.68E-03,  avg # of iterations =  1.1

     negative rho (up, down):  0.116E-01 0.129E-01

     total cpu time spent up to now is    140.97 secs

     total energy              =   -5387.59688120 Ry
     Harris-Foulkes estimate   =   -5391.63998241 Ry
     estimated scf accuracy    <      17.20225217 Ry

     total magnetization       =     0.72 Bohr mag/cell
     absolute magnetization    =     6.02 Bohr mag/cell

     iteration #  3     ecut=    30.00 Ry     beta=0.30
     Davidson diagonalization with overlap
     ethr =  2.56E-03,  avg # of iterations =  2.5

     negative rho (up, down):  0.996E-02 0.117E-01

     total cpu time spent up to now is    212.03 secs

     total energy              =   -5389.89741429 Ry
     Harris-Foulkes estimate   =   -5390.45668145 Ry
     estimated scf accuracy    <       6.97210494 Ry

     total magnetization       =     1.31 Bohr mag/cell
     absolute magnetization    =     6.93 Bohr mag/cell

     iteration #  4     ecut=    30.00 Ry     beta=0.30
     Davidson diagonalization with overlap
     ethr =  1.04E-03,  avg # of iterations =  2.0

     negative rho (up, down):  0.105E-01 0.127E-01

     total cpu time spent up to now is    268.77 secs

     total energy              =   -5390.13438632 Ry
     Harris-Foulkes estimate   =   -5390.45444854 Ry
     estimated scf accuracy    <       2.78017224 Ry

     total magnetization       =     0.67 Bohr mag/cell
     absolute magnetization    =     5.54 Bohr mag/cell

     iteration #  5     ecut=    30.00 Ry     beta=0.30
     Davidson diagonalization with overlap
     ethr =  4.14E-04,  avg # of iterations =  3.1

     negative rho (up, down):  0.107E-01 0.129E-01

     total cpu time spent up to now is    333.13 secs

     total energy              =   -5390.23340740 Ry
     Harris-Foulkes estimate   =   -5390.33001750 Ry
     estimated scf accuracy    <       0.75426378 Ry

     total magnetization       =     0.03 Bohr mag/cell
     absolute magnetization    =     4.81 Bohr mag/cell

     iteration #  6     ecut=    30.00 Ry     beta=0.30
     Davidson diagonalization with overlap
     ethr =  1.12E-04,  avg # of iterations =  8.8

     negative rho (up, down):  0.110E-01 0.126E-01

     total cpu time spent up to now is    431.40 secs

     total energy              =   -5390.19454839 Ry
     Harris-Foulkes estimate   =   -5390.26696987 Ry
     estimated scf accuracy    <       0.34333565 Ry

     total magnetization       =     0.00 Bohr mag/cell
     absolute magnetization    =     4.06 Bohr mag/cell

     iteration #  7     ecut=    30.00 Ry     beta=0.30
     Davidson diagonalization with overlap
     ethr =  5.11E-05,  avg # of iterations =  5.6

     negative rho (up, down):  0.112E-01 0.125E-01

     total cpu time spent up to now is    519.83 secs

     total energy              =   -5390.21428473 Ry
     Harris-Foulkes estimate   =   -5390.23196905 Ry
     estimated scf accuracy    <       0.13170330 Ry

     total magnetization       =     0.00 Bohr mag/cell
     absolute magnetization    =     2.95 Bohr mag/cell

     iteration #  8     ecut=    30.00 Ry     beta=0.30
     Davidson diagonalization with overlap
     ethr =  1.96E-05,  avg # of iterations =  3.4

     negative rho (up, down):  0.114E-01 0.122E-01

     total cpu time spent up to now is    585.19 secs

     total energy              =   -5390.21559288 Ry
     Harris-Foulkes estimate   =   -5390.21952209 Ry
     estimated scf accuracy    <       0.05904004 Ry

     total magnetization       =     0.00 Bohr mag/cell
     absolute magnetization    =     2.50 Bohr mag/cell

     iteration #  9     ecut=    30.00 Ry     beta=0.30
     Davidson diagonalization with overlap
     ethr =  8.79E-06,  avg # of iterations =  4.8

     negative rho (up, down):  0.116E-01 0.122E-01

     total cpu time spent up to now is    669.21 secs

     total energy              =   -5390.21979101 Ry
     Harris-Foulkes estimate   =   -5390.22511332 Ry
     estimated scf accuracy    <       0.04670171 Ry

     total magnetization       =     0.00 Bohr mag/cell
     absolute magnetization    =     1.66 Bohr mag/cell

     iteration # 10     ecut=    30.00 Ry     beta=0.30
     Davidson diagonalization with overlap
     ethr =  6.95E-06,  avg # of iterations =  4.8

     negative rho (up, down):  0.117E-01 0.121E-01

     total cpu time spent up to now is    747.69 secs

     total energy              =   -5390.22378338 Ry
     Harris-Foulkes estimate   =   -5390.22612396 Ry
     estimated scf accuracy    <       0.01968888 Ry

     total magnetization       =     0.00 Bohr mag/cell
     absolute magnetization    =     1.21 Bohr mag/cell

     iteration # 11     ecut=    30.00 Ry     beta=0.30
     Davidson diagonalization with overlap
     ethr =  2.93E-06,  avg # of iterations =  7.2

     negative rho (up, down):  0.118E-01 0.120E-01

     total cpu time spent up to now is    839.08 secs

     total energy              =   -5390.22436833 Ry
     Harris-Foulkes estimate   =   -5390.22543212 Ry
     estimated scf accuracy    <       0.00580631 Ry

     total magnetization       =    -0.00 Bohr mag/cell
     absolute magnetization    =     0.79 Bohr mag/cell

     iteration # 12     ecut=    30.00 Ry     beta=0.30
     Davidson diagonalization with overlap
     ethr =  8.64E-07,  avg # of iterations =  4.2

     negative rho (up, down):  0.118E-01 0.120E-01

     total cpu time spent up to now is    915.32 secs

     total energy              =   -5390.22496364 Ry
     Harris-Foulkes estimate   =   -5390.22513119 Ry
     estimated scf accuracy    <       0.00147686 Ry

     total magnetization       =     0.00 Bohr mag/cell
     absolute magnetization    =     0.52 Bohr mag/cell

     iteration # 13     ecut=    30.00 Ry     beta=0.30
     Davidson diagonalization with overlap
     ethr =  2.20E-07,  avg # of iterations =  4.4

     negative rho (up, down):  0.118E-01 0.119E-01

     total cpu time spent up to now is    994.31 secs

     total energy              =   -5390.22511330 Ry
     Harris-Foulkes estimate   =   -5390.22522515 Ry
     estimated scf accuracy    <       0.00090366 Ry

     total magnetization       =    -0.00 Bohr mag/cell
     absolute magnetization    =     0.33 Bohr mag/cell

     iteration # 14     ecut=    30.00 Ry     beta=0.30
     Davidson diagonalization with overlap
     ethr =  1.34E-07,  avg # of iterations =  3.1

     negative rho (up, down):  0.118E-01 0.119E-01

     total cpu time spent up to now is   1061.77 secs

     total energy              =   -5390.22519986 Ry
     Harris-Foulkes estimate   =   -5390.22522888 Ry
     estimated scf accuracy    <       0.00021624 Ry

     total magnetization       =     0.00 Bohr mag/cell
     absolute magnetization    =     0.19 Bohr mag/cell

     iteration # 15     ecut=    30.00 Ry     beta=0.30
     Davidson diagonalization with overlap
     ethr =  3.22E-08,  avg # of iterations =  3.1

     negative rho (up, down):  0.119E-01 0.119E-01

     total cpu time spent up to now is   1132.37 secs

     total energy              =   -5390.22524063 Ry
     Harris-Foulkes estimate   =   -5390.22524201 Ry
     estimated scf accuracy    <       0.00006267 Ry

     total magnetization       =     0.00 Bohr mag/cell
[...]
     0.6577   0.6655   0.6960   0.7019   0.7111   0.7813   0.8018   0.8081
     0.9528   0.9588   1.0186   1.0891   1.1216   1.1605   1.2513   1.2716
     1.2910   1.2937   1.3057   1.3530   1.3570   1.4050   1.4138   1.4185
     1.4491   1.4537   1.4734   1.4802   1.5004   1.5099   1.5126   1.5504
     1.5733   1.6011   1.6082   1.6149   1.6202   1.6244   1.6489   1.6702
     1.7082   1.7147   1.8417   1.8944   1.9648   1.9651   2.0729   2.1319
     2.1559   2.1747   2.1897   2.1921   2.2015   2.2574   2.2612   2.3241
     2.3442   2.3960   2.4006   2.4015   2.4209   2.4256   2.4324   2.4380
     2.4509   2.4866   2.4869   2.5206   2.5310   2.5349   2.5474   2.5499
     2.5797   2.6113   2.6220   2.6817   2.6903   2.7218   2.7439   2.7450
     2.7511   2.7676   2.8061   2.8277   2.8443   2.8544   2.9221   2.9405
     2.9414   2.9456   2.9731   2.9970   2.9982   3.0609   3.0688   3.1114
     3.1134   3.1344   3.1559   3.1780   3.2099   3.3033   3.3230   3.3713
     3.4050   3.4491   3.4603   3.5689   3.5834   3.5836   3.6095   3.6571
     3.6658   3.6741   3.6868   3.7781   3.8225   3.8387   3.8614   3.8664
     3.8768   3.8908   3.9190   3.9691   4.0248   4.0300   4.0300   4.0490
     4.1042   4.1987   4.2269   4.2558   4.2872   4.3548   4.3620   4.4048
     5.9375   6.4464   6.5660   6.5851   6.6108   6.7169   6.7600   6.8303
     6.8361   6.8487   6.8746   7.0097   7.0205   7.0739   7.0825   7.1181
     7.3324   7.3737   7.4114   7.5594   7.5941   7.6183   7.6606   7.6664
     7.6798   7.7268   7.7533   7.7602   7.7726   7.7805   7.8270   7.8352
     7.8526   7.8824   7.8970   7.9066   7.9254   7.9481   7.9558   7.9584
     7.9749   7.9796   7.9821   8.0010   8.0025   8.0222   8.0900   8.1003
     8.1301   8.1306   8.1361   8.1421   8.1669   8.2155   8.2311   8.2397
     8.2507   8.2964   8.2991   8.3156   8.3403   8.3580   8.3622   8.4270
     8.4746   8.4907   8.4927

          k =-0.5000-0.5390-0.6582 ( 20080 PWs)   bands (ev):

   -60.8711 -60.8685 -59.9320 -59.9307 -59.9305 -59.9299 -59.9233 -59.9226
   -59.9224 -59.9212 -59.8459 -59.8438 -59.7724 -59.7703 -59.7122 -59.7109
   -59.7102 -59.7091 -59.6956 -59.6938 -59.6937 -59.6919 -59.6407 -59.6387
   -34.9601 -34.8883 -34.7449 -34.7373 -34.6616 -34.6585 -33.8907 -33.8897
   -33.8884 -33.8871 -33.8796 -33.8782 -33.8775 -33.8767 -33.8616 -33.8590
   -33.8583 -33.8545 -33.8340 -33.8339 -33.8304 -33.8238 -33.8208 -33.8136
   -33.8025 -33.7928 -33.7883 -33.7819 -33.7691 -33.7641 -33.7602 -33.7578
   -33.7525 -33.7248 -33.7243 -33.7189 -33.7101 -33.7083 -33.6790 -33.6785
   -33.6777 -33.6719 -33.6691 -33.6654 -33.6646 -33.6645 -33.6636 -33.6349
   -33.6336 -33.6292 -33.6283 -33.6269 -33.6236 -33.6193 -33.6131 -33.6020
   -33.5939 -33.5881 -33.5811 -33.5742 -33.5663 -33.5597 -33.5501 -33.5469
   -33.5269 -33.5235 -33.5232 -33.5226 -33.5056 -33.4801 -33.4786 -33.4779
   -17.2541 -13.4549 -13.4052 -13.2447 -13.2358 -13.0607 -13.0455 -12.9853
   -12.9819 -12.5818 -12.5259 -12.5197 -12.5032 -12.4824 -12.4709 -12.3388
   -12.2586 -12.2462 -12.2434 -12.1994 -12.1535 -12.1250 -12.1246 -12.1100
   -12.0795 -12.0590 -12.0391 -12.0319 -12.0085 -11.9899 -11.9654 -11.9588
   -11.9436 -11.9112 -11.9008 -11.8692 -11.8029 -11.7799 -11.7263 -11.7207
   -11.6854 -11.6850 -11.6615 -11.6576 -11.6530 -11.6502 -11.5969 -11.5853
   -11.5425 -11.5362 -11.4757 -11.4704 -11.4644 -11.4635 -11.4426 -11.4414
   -11.4154 -11.4097 -11.3819 -11.3804  -3.9383  -2.3748  -2.2461  -0.6746
    -0.6675  -0.6434  -0.6292  -0.3800  -0.3476  -0.2888  -0.2834  -0.2797
    -0.2769  -0.2679  -0.2582  -0.1740  -0.1618  -0.1385  -0.1243  -0.0990
    -0.0689  -0.0548  -0.0068   0.0220   0.0781   0.1201   0.1243   0.1318
     0.1362   0.2626   0.2777   0.3030   0.3348   0.3496   0.4082   0.4097
     0.4558   0.5171   0.5310   0.5898   0.6153   0.6919   0.7001   0.7368
     0.8034   0.8318   0.8334   0.8342   0.8623   0.8756   0.9128   0.9256
     0.9281   0.9688   0.9951   0.9983   1.0404   1.0614   1.0620   1.1201
     1.1214   1.1396   1.1568   1.1638   1.1852   1.2007   1.2027   1.2391
     1.2457   1.2658   1.3755   1.3867   1.4239   1.4254   1.4401   1.4606
     1.5063   1.5080   1.5201   1.6537   1.6795   1.6966   1.7025   1.7364
     1.7479   1.7907   1.8317   1.8355   1.8505   1.8741   1.9023   1.9329
     1.9349   1.9830   1.9869   2.0204   2.0330   2.2323   2.2405   2.2485
     2.2571   2.2823   2.3023   2.3933   2.4112   2.4232   2.4425   2.4561
     2.4767   2.4776   2.5050   2.5439   2.5475   2.5805   2.5972   2.6172
     2.6618   2.6890   2.7151   2.7287   2.7359   2.7572   2.7622   2.7861
     2.7864   2.8018   2.8086   2.8303   2.8424   2.9029   2.9039   2.9264
     2.9368   3.0643   3.0880   3.1272   3.1385   3.1567   3.1590   3.1623
     3.1716   3.2387   3.2592   3.3071   3.3801   3.4353   3.4381   3.5105
     3.5174   3.5193   3.5622   3.5894   3.6058   3.6286   3.6320   3.6550
     3.6852   3.6889   3.7021   3.8142   3.8225   3.8364   3.8385   3.8631
     3.8763   3.9020   3.9167   3.9202   3.9529   4.0046   4.0055   4.0111
     4.0406   4.0420   4.0580   4.1021   4.1285   4.1475   4.1551   4.1748
     5.9410   6.4468   6.5761   6.5897   6.6182   6.7291   6.7532   6.8334
     6.8402   6.8599   6.8691   7.0249   7.0283   7.0816   7.0872   7.1182
     7.3540   7.3935   7.4359   7.5682   7.5953   7.6193   7.6842   7.7313
     7.7394   7.7431   7.7880   7.8066   7.8143   7.8575   7.8580   7.8710
     7.8748   7.8873   7.9013   7.9099   7.9197   7.9200   7.9376   7.9482
     7.9498   7.9515   8.0071   8.0145   8.0275   8.0432   8.0934   8.0944
     8.1103   8.1197   8.1357   8.1360   8.1934   8.2526   8.2706   8.2861
     8.2880   8.3011   8.3151   8.3247   8.3258   8.3291   8.4482   8.4672
     8.4728   8.5190   8.5299

     the Fermi energy is     5.1249 ev

!    total energy              =   -5390.22525778 Ry
     Harris-Foulkes estimate   =   -5390.22525777 Ry
     estimated scf accuracy    <          4.5E-09 Ry

     The total energy is the sum of the following terms:

     one-electron contribution =   -3528.91944202 Ry
     hartree contribution      =    1993.41078042 Ry
     xc contribution           =    -854.69929758 Ry
     ewald contribution        =   -3006.63987827 Ry
     Hubbard energy            =       6.62257966 Ry
     smearing contrib. (-TS)   =      -0.00000000 Ry

     total magnetization       =    -0.00 Bohr mag/cell
     absolute magnetization    =     0.00 Bohr mag/cell

     convergence has been achieved in  25 iterations
 forces --- starting time for forces:
     forces       :      0.00s CPU      0.00s WALL (       1 calls)

     Forces acting on atoms (Ry/au):

 forces --- nonlocal contribution:
     forces       :      4.87s CPU      4.88s WALL (       2 calls)
 forces --- local contribution:
     forces       :      4.89s CPU      4.90s WALL (       3 calls)

     negative rho (up, down):  0.119E-01 0.119E-01
 forces --- NLCC contribution:
     forces       :      5.03s CPU      5.04s WALL (       4 calls)
 forces --- entering force_hub:
     forces       :      5.03s CPU      5.04s WALL (       5 calls)
           1  forces --- i/o, init_us_2, calbec, s_psi:
     forces       :      5.16s CPU      5.17s WALL (       6 calls)
           1  forces --- dn/dtau:
     forces       :     62.58s CPU     62.61s WALL (       7 calls)
           2  forces --- i/o, init_us_2, calbec, s_psi:
     forces       :     62.70s CPU     62.73s WALL (       8 calls)
           2  forces --- dn/dtau:
     forces       :    120.26s CPU    120.31s WALL (       9 calls)
           3  forces --- i/o, init_us_2, calbec, s_psi:
     forces       :    120.38s CPU    120.44s WALL (      10 calls)
           3  forces --- dn/dtau:
     forces       :    177.83s CPU    177.91s WALL (      11 calls)
           4  forces --- i/o, init_us_2, calbec, s_psi:
     forces       :    177.95s CPU    178.03s WALL (      12 calls)
           4  forces --- dn/dtau:
     forces       :    233.99s CPU    234.11s WALL (      13 calls)
           5  forces --- i/o, init_us_2, calbec, s_psi:
     forces       :    234.11s CPU    234.23s WALL (      14 calls)
           5  forces --- dn/dtau:
     forces       :    288.50s CPU    288.64s WALL (      15 calls)
           6  forces --- i/o, init_us_2, calbec, s_psi:
     forces       :    288.62s CPU    288.76s WALL (      16 calls)
           6  forces --- dn/dtau:
     forces       :    342.95s CPU    343.15s WALL (      17 calls)
           7  forces --- i/o, init_us_2, calbec, s_psi:
     forces       :    343.07s CPU    343.28s WALL (      18 calls)
           7  forces --- dn/dtau:
     forces       :    397.59s CPU    397.81s WALL (      19 calls)
           8  forces --- i/o, init_us_2, calbec, s_psi:
     forces       :    397.71s CPU    397.93s WALL (      20 calls)
           8  forces --- dn/dtau:
     forces       :    452.39s CPU    452.62s WALL (      21 calls)
           9  forces --- i/o, init_us_2, calbec, s_psi:
     forces       :    452.51s CPU    452.75s WALL (      22 calls)
           9  forces --- dn/dtau:
     forces       :    506.78s CPU    507.04s WALL (      23 calls)
          10  forces --- i/o, init_us_2, calbec, s_psi:
     forces       :    506.90s CPU    507.16s WALL (      24 calls)
          10  forces --- dn/dtau:
     forces       :    561.77s CPU    562.05s WALL (      25 calls)
          11  forces --- i/o, init_us_2, calbec, s_psi:
     forces       :    561.89s CPU    562.17s WALL (      26 calls)
          11  forces --- dn/dtau:
     forces       :    616.45s CPU    616.75s WALL (      27 calls)
          12  forces --- i/o, init_us_2, calbec, s_psi:
     forces       :    616.57s CPU    616.87s WALL (      28 calls)
          12  forces --- dn/dtau:
     forces       :    670.74s CPU    671.05s WALL (      29 calls)
          13  forces --- i/o, init_us_2, calbec, s_psi:
     forces       :    670.86s CPU    671.18s WALL (      30 calls)
          13  forces --- dn/dtau:
     forces       :    724.42s CPU    724.76s WALL (      31 calls)
          14  forces --- i/o, init_us_2, calbec, s_psi:
     forces       :    724.54s CPU    724.88s WALL (      32 calls)
          14  forces --- dn/dtau:
     forces       :    777.97s CPU    778.33s WALL (      33 calls)
          15  forces --- i/o, init_us_2, calbec, s_psi:
     forces       :    778.09s CPU    778.45s WALL (      34 calls)
          15  forces --- dn/dtau:
     forces       :    831.56s CPU    831.93s WALL (      35 calls)
          16  forces --- i/o, init_us_2, calbec, s_psi:
     forces       :    831.68s CPU    832.05s WALL (      36 calls)
          16  forces --- dn/dtau:
     forces       :    884.80s CPU    885.20s WALL (      37 calls)
 forces --- Hubbard contribution:
     forces       :    884.80s CPU    885.20s WALL (      38 calls)
 forces --- ionic contribution:
     forces       :    884.82s CPU    885.22s WALL (      39 calls)
 forces --- SCF contribution:
     forces       :    885.06s CPU    885.46s WALL (      40 calls)
     atom   1 type  2   force =    -0.01079109   -0.01851317   -0.01894898
     atom   2 type  2   force =     0.00019635   -0.00525518   -0.00915789
     atom   3 type  2   force =    -0.01079109    0.01851317   -0.01894898
     atom   4 type  2   force =     0.00019635    0.00525518   -0.00915789
     atom   5 type  2   force =    -0.00165381    0.00000000   -0.01668622
     atom   6 type  2   force =     0.00128187    0.00000000   -0.01237323
     atom   7 type  2   force =    -0.01261456    0.00000000    0.00855631
     atom   8 type  2   force =    -0.19559818    0.00000000    0.03215702
     atom   9 type  2   force =    -0.00469581    0.00633681    0.01195712
     atom  10 type  2   force =    -0.00601341    0.02715391    0.01763616
     atom  11 type  2   force =    -0.00469581   -0.00633681    0.01195712
     atom  12 type  2   force =    -0.00601341   -0.02715391    0.01763616
     atom  13 type  2   force =     0.01261456    0.00000000    0.00855631
     atom  14 type  2   force =     0.19559818    0.00000000    0.03215702
     atom  15 type  2   force =     0.00469581    0.00633681    0.01195712
     atom  16 type  2   force =     0.00601341    0.02715391    0.01763616
     atom  17 type  2   force =     0.00469581   -0.00633681    0.01195712
     atom  18 type  2   force =     0.00601341   -0.02715391    0.01763616
     atom  19 type  2   force =     0.01079109   -0.01851317   -0.01894898
     atom  20 type  2   force =    -0.00019635   -0.00525518   -0.00915789
     atom  21 type  2   force =     0.01079109    0.01851317   -0.01894898
     atom  22 type  2   force =    -0.00019635    0.00525518   -0.00915789
     atom  23 type  2   force =     0.00165381    0.00000000   -0.01668622
     atom  24 type  2   force =    -0.00128187    0.00000000   -0.01237323
     atom  25 type  1   force =     0.02620055    0.00000000    0.01672651
     atom  26 type  1   force =     0.00046181    0.00000000    0.00284312
     atom  27 type  1   force =    -0.00071360   -0.01125871    0.00168936
     atom  28 type  1   force =    -0.00294476   -0.00388943    0.00218663
     atom  29 type  1   force =    -0.00071360    0.01125871    0.00168936
     atom  30 type  1   force =    -0.00294476    0.00388943    0.00218663
     atom  31 type  1   force =     0.00596190    0.00766840   -0.00328293
     atom  32 type  1   force =     0.02538945    0.04327834    0.00250875
     atom  33 type  1   force =     0.00596190   -0.00766840   -0.00328293
     atom  34 type  1   force =     0.02538945   -0.04327834    0.00250875
     atom  35 type  1   force =     0.00544843    0.00000000   -0.00175626
     atom  36 type  1   force =     0.00851551    0.00000000    0.00127053
     atom  37 type  1   force =    -0.00596190    0.00766840   -0.00328293
     atom  38 type  1   force =    -0.02538945    0.04327834    0.00250875
     atom  39 type  1   force =    -0.00596190   -0.00766840   -0.00328293
     atom  40 type  1   force =    -0.02538945   -0.04327834    0.00250875
     atom  41 type  1   force =    -0.00544843    0.00000000   -0.00175626
     atom  42 type  1   force =    -0.00851551    0.00000000    0.00127053
     atom  43 type  1   force =    -0.02620055    0.00000000    0.01672651
     atom  44 type  1   force =    -0.00046181    0.00000000    0.00284312
     atom  45 type  1   force =     0.00071360   -0.01125871    0.00168936
     atom  46 type  1   force =     0.00294476   -0.00388943    0.00218663
     atom  47 type  1   force =     0.00071360    0.01125871    0.00168936
     atom  48 type  1   force =     0.00294476    0.00388943    0.00218663
     atom  49 type  1   force =    -0.00022953    0.00116297    0.00738429
     atom  50 type  1   force =    -0.00140283    0.00124503   -0.00431006
     atom  51 type  1   force =    -0.00022953   -0.00116297    0.00738429
     atom  52 type  1   force =    -0.00140283   -0.00124503   -0.00431006
     atom  53 type  1   force =    -0.00016634    0.00000000    0.00490799
     atom  54 type  1   force =    -0.00056536    0.00000000   -0.00109161
     atom  55 type  1   force =    -0.00478592    0.00000000    0.01529074
     atom  56 type  1   force =    -0.01163789    0.00000000   -0.02695970
     atom  57 type  1   force =    -0.00008920   -0.00126363    0.00281223
     atom  58 type  1   force =    -0.00059936   -0.00195604   -0.00566270
     atom  59 type  1   force =    -0.00008920    0.00126363    0.00281223
     atom  60 type  1   force =    -0.00059936    0.00195604   -0.00566270
     atom  61 type  1   force =     0.00478592    0.00000000    0.01529074
     atom  62 type  1   force =     0.01163789    0.00000000   -0.02695970
     atom  63 type  1   force =     0.00008920   -0.00126363    0.00281223
     atom  64 type  1   force =     0.00059936   -0.00195604   -0.00566270
     atom  65 type  1   force =     0.00008920    0.00126363    0.00281223
     atom  66 type  1   force =     0.00059936    0.00195604   -0.00566270
     atom  67 type  3   force =     0.00000000    0.00000000   -0.06056557
     atom  68 type  1   force =     0.00000000    0.00000000   -0.01281406
     atom  69 type  1   force =     0.00000000   -0.00525894   -0.00793769
     atom  70 type  1   force =     0.00000000   -0.00116806   -0.00908492
     atom  71 type  1   force =     0.00000000    0.00525894   -0.00793769
     atom  72 type  1   force =     0.00000000    0.00116806   -0.00908492
     atom  73 type  1   force =     0.00000000    0.00072085    0.00822811
     atom  74 type  1   force =     0.00000000    0.00321069    0.00533873
     atom  75 type  1   force =     0.00000000   -0.00072085    0.00822811
     atom  76 type  1   force =     0.00000000   -0.00321069    0.00533873
     atom  77 type  1   force =     0.00000000    0.00000000    0.00824051
     atom  78 type  1   force =     0.00000000    0.00000000    0.00703232
     atom  79 type  1   force =     0.00022953    0.00116297    0.00738429
     atom  80 type  1   force =     0.00140283    0.00124503   -0.00431006
     atom  81 type  1   force =     0.00022953   -0.00116297    0.00738429
     atom  82 type  1   force =     0.00140283   -0.00124503   -0.00431006
     atom  83 type  1   force =     0.00016634    0.00000000    0.00490799
     atom  84 type  1   force =     0.00056536    0.00000000   -0.00109161

     Total force =     0.330773     Total SCF correction =     0.000296


     entering subroutine stress ...


     negative rho (up, down):  0.119E-01 0.119E-01
          total   stress  (Ry/bohr**3)                   (kbar)     P=   21.73
   0.00029394   0.00000000   0.00000000         43.24      0.00      0.00
   0.00000000   0.00015533   0.00000000          0.00     22.85      0.00
   0.00000000   0.00000000  -0.00000619          0.00      0.00     -0.91


     Writing output data file v2o5.O67-FCH.save
 
     init_run     :     25.65s CPU     26.70s WALL (       1 calls)
     electrons    :   1754.37s CPU   1773.10s WALL (       1 calls)
     forces       :    885.06s CPU    885.47s WALL (      41 calls)
     stress       :   1087.15s CPU   1087.96s WALL (       1 calls)

     Called by init_run:
     wfcinit      :     22.83s CPU     23.30s WALL (       1 calls)
     potinit      :      0.23s CPU      0.24s WALL (       1 calls)

     Called by electrons:
     c_bands      :   1490.88s CPU   1505.81s WALL (      25 calls)
     sum_band     :    231.05s CPU    232.94s WALL (      25 calls)
     v_of_rho     :      1.77s CPU      1.78s WALL (      26 calls)
     newd         :     26.33s CPU     26.33s WALL (      26 calls)
     mix_rho      :      1.99s CPU      2.00s WALL (      25 calls)

     Called by c_bands:
     init_us_2    :      1.88s CPU      2.35s WALL (    1024 calls)
     cegterg      :   1482.30s CPU   1494.83s WALL (     400 calls)

     Called by *egterg:
     h_psi        :    801.95s CPU    804.71s WALL (    1807 calls)
     s_psi        :     41.61s CPU     41.63s WALL (    1983 calls)
     g_psi        :      0.52s CPU      0.53s WALL (    1391 calls)
     cdiaghg      :    554.39s CPU    563.67s WALL (    1791 calls)

     Called by h_psi:
     add_vuspsi   :     34.63s CPU     34.77s WALL (    1807 calls)

     General routines
     calbec       :    115.68s CPU    116.14s WALL (    4526 calls)
     fft          :      2.83s CPU      2.85s WALL (     840 calls)
     ffts         :      1.52s CPU      1.53s WALL (    1324 calls)
     fftw         :    823.08s CPU    825.93s WALL (  878678 calls)
     interpolate  :      0.50s CPU      0.51s WALL (     102 calls)
     davcio       :      0.47s CPU      4.15s WALL (    2992 calls)
 
     Parallel routines
     fft_scatter  :    693.55s CPU    695.91s WALL (  880842 calls)
 
     PWSCF        :     1h 2m CPU        1h 3m WALL

 
   This run was terminated on:   2:16:54  11Sep2018            

=------------------------------------------------------------------------------=
   JOB DONE.
=------------------------------------------------------------------------------=
