
     Program PWSCF v.4.3        starts on 11Sep2018 at  2:17: 0 

     This program is part of the open-source Quantum ESPRESSO suite
     for quantum simulation of materials; please cite
         "P. Giannozzi et al., J. Phys.:Condens. Matter 21 395502 (2009);
          URL http://www.quantum-espresso.org", 
     in publications or presentations arising from this work. More details at
     http://www.quantum-espresso.org/wiki/index.php/Citing_Quantum-ESPRESSO

     Parallel version (MPI), running on    64 processors
     R & G space division:  proc/pool =   64

     Current dimensions of program PWSCF are:
     Max number of different atomic species (ntypx) = **
     Max number of k-points (npk) =  40000
     Max angular momentum in pseudopotentials (lmaxx) =  3
     Waiting for input...

     Atomic positions and unit cell read from directory:
     ./v2o5.O67-FCH.save/
 

     Subspace diagonalization in iterative solution of the eigenvalue problem:
     parallel, distributed-memory algorithm (size of sub-group:  5*  5 procs)

 
   Stick Mesh
   ----------
   nst = 10457,  nstw =  1035, nsts =  4177
               n.st   n.stw   n.sts    n.g    n.gw   n.gs
   min         163      16      65    9923     312    2501
   max         164      17      66    9926     317    2526
      10457    1035    4177  635163   20075  160693
 


     bravais-lattice index     =           14
     lattice parameter (a_0)   =      21.7375  a.u.
     unit-cell volume          =    7238.1051 (a.u.)^3
     number of atoms/cell      =           84
     number of atomic types    =            3
     number of electrons       =       672.00
     number of Kohn-Sham states=          806
     kinetic-energy cutoff     =      30.0000  Ry
     charge density cutoff     =     300.0000  Ry
     Exchange-correlation      = SLA  PW   PBE  PBE (1434)
     EXX-fraction              =        0.00

     celldm(1)=  21.737520  celldm(2)=   0.927671  celldm(3)=   0.759628
     celldm(4)=   0.000000  celldm(5)=   0.000000  celldm(6)=   0.000000

     crystal axes: (cart. coord. in units of a_0)
               a(1) = (   1.000000   0.000000   0.000000 )  
               a(2) = (   0.000000   0.927671   0.000000 )  
               a(3) = (   0.000000   0.000000   0.759628 )  

     reciprocal axes: (cart. coord. in units 2 pi/a_0)
               b(1) = (  1.000000  0.000000  0.000000 )  
               b(2) = (  0.000000  1.077968  0.000000 )  
               b(3) = (  0.000000  0.000000  1.316434 )  


     PseudoPot. # 1 for O  read from file O.pbe-van_bm.UPF
     MD5 check sum: ca2828d9fb1f294809e918903b7648d1
     Pseudo is Ultrasoft, Zval =  6.0
     Generated by new atomic code, or converted to UPF format
     Using radial grid of  737 points,  4 beta functions with: 
                l(1) =   0
                l(2) =   0
                l(3) =   1
                l(4) =   1
     Q(r) pseudized with  8 coefficients,  rinner =    0.800   0.800   0.800


     PseudoPot. # 2 for V  read from file V.pbe-van-yufengl.UPF
     MD5 check sum: 105a573f738f0b837c178d5a4207921b
     Pseudo is Ultrasoft + core correction, Zval = 13.0
     Generated by new atomic code, or converted to UPF format
     Using radial grid of  853 points,  6 beta functions with: 
                l(1) =   0
                l(2) =   0
                l(3) =   1
                l(4) =   1
                l(5) =   2
                l(6) =   2
     Q(r) pseudized with  6 coefficients,  rinner =    1.000   1.000   1.000
                                                       1.000   1.000

     PseudoPot. # 3 for ox read from file O.pbe-van-dgp-1s1.UPF
     MD5 check sum: 2083901d62884ac3a15d661bda1575b3
     Pseudo is Ultrasoft, Zval =  7.0
     Generated by new atomic code, or converted to UPF format
     Using radial grid of  737 points,  4 beta functions with: 
                l(1) =   0
                l(2) =   0
                l(3) =   1
                l(4) =   1
     Q(r) pseudized with  8 coefficients,  rinner =    0.800   0.800   0.800


     atomic species   valence    mass     pseudopotential
        O              6.00    15.99900     O ( 1.00)
        V             13.00    50.94000     V ( 1.00)
        OX             7.00    15.99900     ox( 1.00)

     Starting magnetic structure 
     atomic species   magnetization
        O            0.000
        V            0.010
        OX           0.000

     LDA+U calculation, Hubbard_lmax = 2
     atomic species  L   Hubbard U  Hubbard alpha
        V            2    0.227846    0.000000

      4 Sym.Ops. (no inversion)


   Cartesian axes

     site n.     atom                  positions (a_0 units)
         1           V   tau(  1) = (   0.1483269   0.0000000   0.3388149  )
         2           V   tau(  2) = (   0.1483269   0.0000000   0.7186289  )
         3           V   tau(  3) = (   0.1483269   0.3092237   0.3388149  )
         4           V   tau(  4) = (   0.1483269   0.3092237   0.7186289  )
         5           V   tau(  5) = (   0.1483269   0.6184474   0.3388149  )
         6           V   tau(  6) = (   0.1483269   0.6184474   0.7186289  )
         7           V   tau(  7) = (   0.3516731   0.1546118   0.0409986  )
         8           V   tau(  8) = (   0.3516731   0.1546118   0.4208125  )
         9           V   tau(  9) = (   0.3516731   0.4638355   0.0409986  )
        10           V   tau( 10) = (   0.3516731   0.4638355   0.4208125  )
        11           V   tau( 11) = (   0.3516731   0.7730592   0.0409986  )
        12           V   tau( 12) = (   0.3516731   0.7730592   0.4208125  )
        13           V   tau( 13) = (   0.6483270   0.1546118   0.0409980  )
        14           V   tau( 14) = (   0.6483270   0.1546118   0.4208119  )
        15           V   tau( 15) = (   0.6483270   0.4638355   0.0409980  )
        16           V   tau( 16) = (   0.6483270   0.4638355   0.4208119  )
        17           V   tau( 17) = (   0.6483270   0.7730592   0.0409980  )
        18           V   tau( 18) = (   0.6483270   0.7730592   0.4208119  )
        19           V   tau( 19) = (   0.8516731   0.0000000   0.3388154  )
        20           V   tau( 20) = (   0.8516731   0.0000000   0.7186293  )
        21           V   tau( 21) = (   0.8516731   0.3092237   0.3388154  )
        22           V   tau( 22) = (   0.8516731   0.3092237   0.7186293  )
        23           V   tau( 23) = (   0.8516731   0.6184474   0.3388154  )
        24           V   tau( 24) = (   0.8516731   0.6184474   0.7186293  )
        25           O   tau( 25) = (   0.1813361   0.1546118   0.3796345  )
        26           O   tau( 26) = (   0.1813361   0.1546118   0.7594484  )
        27           O   tau( 27) = (   0.1813361   0.4638355   0.3796345  )
        28           O   tau( 28) = (   0.1813361   0.4638355   0.7594484  )
        29           O   tau( 29) = (   0.1813361   0.7730592   0.3796345  )
        30           O   tau( 30) = (   0.1813361   0.7730592   0.7594484  )
        31           O   tau( 31) = (   0.3186639   0.0000000   0.0001795  )
        32           O   tau( 32) = (   0.3186639   0.0000000   0.3799935  )
        33           O   tau( 33) = (   0.3186639   0.3092237   0.0001795  )
        34           O   tau( 34) = (   0.3186639   0.3092237   0.3799935  )
        35           O   tau( 35) = (   0.3186639   0.6184474   0.0001795  )
        36           O   tau( 36) = (   0.3186639   0.6184474   0.3799935  )
        37           O   tau( 37) = (   0.6813362   0.0000000   0.0001795  )
        38           O   tau( 38) = (   0.6813362   0.0000000   0.3799935  )
        39           O   tau( 39) = (   0.6813362   0.3092237   0.0001795  )
        40           O   tau( 40) = (   0.6813362   0.3092237   0.3799935  )
        41           O   tau( 41) = (   0.6813362   0.6184474   0.0001795  )
        42           O   tau( 42) = (   0.6813362   0.6184474   0.3799935  )
        43           O   tau( 43) = (   0.8186639   0.1546118   0.3796345  )
        44           O   tau( 44) = (   0.8186639   0.1546118   0.7594485  )
        45           O   tau( 45) = (   0.8186639   0.4638355   0.3796345  )
        46           O   tau( 46) = (   0.8186639   0.4638355   0.7594485  )
        47           O   tau( 47) = (   0.8186639   0.7730592   0.3796345  )
        48           O   tau( 48) = (   0.8186639   0.7730592   0.7594485  )
        49           O   tau( 49) = (   0.8552736   0.0000000   0.2004983  )
        50           O   tau( 50) = (   0.8552736   0.0000000   0.5803123  )
        51           O   tau( 51) = (   0.8552736   0.3092237   0.2004983  )
        52           O   tau( 52) = (   0.8552736   0.3092237   0.5803123  )
        53           O   tau( 53) = (   0.8552736   0.6184474   0.2004983  )
        54           O   tau( 54) = (   0.8552736   0.6184474   0.5803123  )
        55           O   tau( 55) = (   0.6447264   0.1546118   0.1793162  )
        56           O   tau( 56) = (   0.6447264   0.1546118   0.5591301  )
        57           O   tau( 57) = (   0.6447264   0.4638355   0.1793162  )
        58           O   tau( 58) = (   0.6447264   0.4638355   0.5591301  )
        59           O   tau( 59) = (   0.6447264   0.7730592   0.1793162  )
        60           O   tau( 60) = (   0.6447264   0.7730592   0.5591301  )
        61           O   tau( 61) = (   0.3552736   0.1546118   0.1793157  )
        62           O   tau( 62) = (   0.3552736   0.1546118   0.5591297  )
        63           O   tau( 63) = (   0.3552736   0.4638355   0.1793157  )
        64           O   tau( 64) = (   0.3552736   0.4638355   0.5591297  )
        65           O   tau( 65) = (   0.3552736   0.7730592   0.1793157  )
        66           O   tau( 66) = (   0.3552736   0.7730592   0.5591297  )
        67           OX  tau( 67) = (   0.5000000   0.1546118   0.3788864  )
        68           O   tau( 68) = (   0.5000000   0.1546118   0.7587004  )
        69           O   tau( 69) = (   0.5000000   0.4638355   0.3788864  )
        70           O   tau( 70) = (   0.5000000   0.4638355   0.7587004  )
        71           O   tau( 71) = (   0.5000000   0.7730592   0.3788864  )
        72           O   tau( 72) = (   0.5000000   0.7730592   0.7587004  )
        73           O   tau( 73) = (  -0.0000000   0.0000000   0.0009276  )
        74           O   tau( 74) = (  -0.0000000   0.0000000   0.3807415  )
        75           O   tau( 75) = (  -0.0000000   0.3092237   0.0009276  )
        76           O   tau( 76) = (  -0.0000000   0.3092237   0.3807415  )
        77           O   tau( 77) = (  -0.0000000   0.6184474   0.0009276  )
        78           O   tau( 78) = (  -0.0000000   0.6184474   0.3807415  )
        79           O   tau( 79) = (   0.1447264   0.0000000   0.2004987  )
        80           O   tau( 80) = (   0.1447264   0.0000000   0.5803126  )
        81           O   tau( 81) = (   0.1447264   0.3092237   0.2004987  )
        82           O   tau( 82) = (   0.1447264   0.3092237   0.5803126  )
        83           O   tau( 83) = (   0.1447264   0.6184474   0.2004987  )
        84           O   tau( 84) = (   0.1447264   0.6184474   0.5803126  )

     number of k points=     2  Fermi-Dirac smearing, width (Ry)=  0.0019
                       cart. coord. in units 2pi/a_0
        k(    1) = (   0.0000000   0.0000000   0.0000000), wk =   1.0000000
        k(    2) = (   0.0000000   0.0000000   0.0000000), wk =   1.0000000

     G cutoff = 3590.7196  ( 635163 G-vectors)     FFT grid: (120,120, 96)
     G cutoff = 1436.2879  ( 160693 G-vectors)  smooth grid: ( 75, 72, 60)

     Largest allocated arrays     est. size (Mb)     dimensions
        Kohn-Sham Wavefunctions         3.86 Mb     (    314, 806)
        Atomic wavefunctions            2.30 Mb     (    314, 480)
        NL pseudopotentials             4.37 Mb     (    314, 912)
        Each V/rho on FFT grid          0.88 Mb     (  28800,   2)
        Each G-vector array             0.08 Mb     (   9926)
        G-vector shells                 0.04 Mb     (   4971)
     Largest temporary arrays     est. size (Mb)     dimensions
        Auxiliary wavefunctions        15.45 Mb     (    314,3224)
        Each subspace H/S matrix      158.60 Mb     (   3224,3224)
        Each <psi_i|beta_j> matrix     11.22 Mb     (    912, 806)

     Check: negative/imaginary core charge=   -0.000004    0.000000

     The potential is recalculated from file :
     ./v2o5.O67-FCH.save/charge-density.dat


     negative rho (up, down):  0.119E-01 0.119E-01

     Parameters of the lda+U calculation:
     Number of iteration with fixed ns =  0
     Starting ns and Hubbard U :
 enter write_ns
U( 1) =  0.0000      U( 2) =  3.1000      U( 3) =  0.0000
alpha( 1) =  0.0000      alpha( 2) =  0.0000      alpha( 3) =  0.0000
atom    1   Tr[ns(na)]=   4.6393878
atom    1   spin  1
eigenvalues:  0.3167447 0.4741134 0.4767249 0.5000889 0.5520441
 eigenvectors
 1  -0.0042894 -0.0020132  0.0288546 -0.0036442  0.9995657
 2   0.0484678 -0.8228618  0.2145337  0.5239196 -0.0057322
 3  -0.0055588  0.2118883  0.9746390 -0.0660961 -0.0279731
 4   0.0717237  0.5272449 -0.0567523  0.8447548  0.0060878
 5   0.9962215  0.0032479 -0.0007889 -0.0866928  0.0039883
 occupations
 0.552  0.001 -0.000 -0.005  0.001
 0.001  0.481 -0.000  0.012  0.000
-0.000 -0.000  0.477 -0.001 -0.005
-0.005  0.012 -0.001  0.493  0.001
 0.001  0.000 -0.005  0.001  0.317
atom    1   spin  2
eigenvalues:  0.3167371 0.4741011 0.4767113 0.5000833 0.5520390
 eigenvectors
 1  -0.0042911 -0.0020133  0.0288614 -0.0036465  0.9995655
 2   0.0484464 -0.8229654  0.2144097  0.5238097 -0.0057296
 3  -0.0055477  0.2117903  0.9746665 -0.0660037 -0.0279805
 4   0.0717361  0.5271227 -0.0567468  0.8448303  0.0060902
 5   0.9962217  0.0032345 -0.0007886 -0.0866909  0.0039897
 occupations
 0.552  0.001 -0.000 -0.005  0.001
 0.001  0.481 -0.000  0.012  0.000
-0.000 -0.000  0.477 -0.001 -0.005
-0.005  0.012 -0.001  0.493  0.001
 0.001  0.000 -0.005  0.001  0.317
atom    2   Tr[ns(na)]=   4.6416159
atom    2   spin  1
eigenvalues:  0.3180166 0.4737286 0.4763971 0.5021687 0.5504953
 eigenvectors
 1  -0.0011437 -0.0012473  0.0214063 -0.0025817  0.9997661
 2  -0.0057946  0.0857612  0.9959115 -0.0178672 -0.0212696
 3   0.0493488 -0.9145292  0.0860350  0.3921674 -0.0019140
 4  -0.0786754 -0.3950523  0.0170730 -0.9151182 -0.0033115
 5  -0.9956606 -0.0146089 -0.0029055  0.0918554 -0.0008578
 occupations
 0.550  0.002  0.000 -0.005  0.000
 0.002  0.480 -0.000  0.009  0.000
 0.000 -0.000  0.474 -0.000 -0.003
-0.005  0.009 -0.000  0.499  0.000
 0.000  0.000 -0.003  0.000  0.318
atom    2   spin  2
eigenvalues:  0.3180173 0.4737297 0.4763978 0.5021692 0.5504956
 eigenvectors
 1  -0.0011439 -0.0012473  0.0214062 -0.0025819  0.9997661
 2  -0.0057938  0.0857588  0.9959118 -0.0178666 -0.0212695
 3   0.0493480 -0.9145283  0.0860325  0.3921703 -0.0019138
 4  -0.0786752 -0.3950551  0.0170729 -0.9151171 -0.0033117
 5  -0.9956606 -0.0146079 -0.0029049  0.0918549 -0.0008581
 occupations
 0.550  0.002  0.000 -0.005  0.000
 0.002  0.480 -0.000  0.009  0.000
 0.000 -0.000  0.474 -0.000 -0.003
-0.005  0.009 -0.000  0.499  0.000
 0.000  0.000 -0.003  0.000  0.318
atom    3   Tr[ns(na)]=   4.6393878
atom    3   spin  1
eigenvalues:  0.3167447 0.4741134 0.4767249 0.5000889 0.5520441
 eigenvectors
 1   0.0042894  0.0020132  0.0288546  0.0036442  0.9995657
 2  -0.0484678  0.8228618  0.2145337 -0.5239196 -0.0057322
 3  -0.0055588  0.2118883 -0.9746390 -0.0660961  0.0279731
 4   0.0717237  0.5272449  0.0567523  0.8447548 -0.0060878
 5   0.9962215  0.0032479  0.0007889 -0.0866928 -0.0039883
 occupations
 0.552  0.001  0.000 -0.005 -0.001
 0.001  0.481  0.000  0.012 -0.000
 0.000  0.000  0.477  0.001 -0.005
-0.005  0.012  0.001  0.493 -0.001
-0.001 -0.000 -0.005 -0.001  0.317
atom    3   spin  2
eigenvalues:  0.3167371 0.4741011 0.4767113 0.5000833 0.5520390
 eigenvectors
 1   0.0042911  0.0020133  0.0288614  0.0036465  0.9995655
 2  -0.0484464  0.8229654  0.2144097 -0.5238097 -0.0057296
 3  -0.0055477  0.2117903 -0.9746665 -0.0660037  0.0279805
 4   0.0717361  0.5271227  0.0567468  0.8448303 -0.0060902
 5   0.9962217  0.0032345  0.0007886 -0.0866909 -0.0039897
 occupations
 0.552  0.001  0.000 -0.005 -0.001
 0.001  0.481  0.000  0.012 -0.000
 0.000  0.000  0.477  0.001 -0.005
-0.005  0.012  0.001  0.493 -0.001
-0.001 -0.000 -0.005 -0.001  0.317
atom    4   Tr[ns(na)]=   4.6416159
atom    4   spin  1
eigenvalues:  0.3180166 0.4737286 0.4763971 0.5021687 0.5504953
 eigenvectors
 1   0.0011437  0.0012473  0.0214063  0.0025817  0.9997661
 2  -0.0057946  0.0857612 -0.9959115 -0.0178672  0.0212696
 3  -0.0493488  0.9145292  0.0860350 -0.3921674 -0.0019140
 4  -0.0786754 -0.3950523 -0.0170730 -0.9151182  0.0033115
 5  -0.9956606 -0.0146089  0.0029055  0.0918554  0.0008578
 occupations
 0.550  0.002 -0.000 -0.005 -0.000
 0.002  0.480  0.000  0.009 -0.000
-0.000  0.000  0.474  0.000 -0.003
-0.005  0.009  0.000  0.499 -0.000
-0.000 -0.000 -0.003 -0.000  0.318
atom    4   spin  2
eigenvalues:  0.3180173 0.4737297 0.4763978 0.5021692 0.5504956
 eigenvectors
 1   0.0011439  0.0012473  0.0214062  0.0025819  0.9997661
 2  -0.0057938  0.0857588 -0.9959118 -0.0178666  0.0212695
 3  -0.0493480  0.9145283  0.0860325 -0.3921703 -0.0019138
 4  -0.0786752 -0.3950551 -0.0170729 -0.9151171  0.0033117
 5  -0.9956606 -0.0146079  0.0029049  0.0918549  0.0008581
 occupations
 0.550  0.002 -0.000 -0.005 -0.000
 0.002  0.480  0.000  0.009 -0.000
-0.000  0.000  0.474  0.000 -0.003
-0.005  0.009  0.000  0.499 -0.000
-0.000 -0.000 -0.003 -0.000  0.318
atom    5   Tr[ns(na)]=   4.6396089
atom    5   spin  1
eigenvalues:  0.3149926 0.4746820 0.4781384 0.5002141 0.5517786
 eigenvectors
 1  -0.0000000 -0.0000000  0.0250154  0.0000000  0.9996871
 2   0.0000000 -0.0000000 -0.9996871  0.0000000  0.0250154
 3   0.0567761 -0.8792308  0.0000000  0.4730007 -0.0000000
 4   0.0866547  0.4763168  0.0000000  0.8749933 -0.0000000
 5  -0.9946192 -0.0086909  0.0000000  0.1032329 -0.0000000
 occupations
 0.551  0.002 -0.000 -0.006  0.000
 0.002  0.483 -0.000  0.009  0.000
-0.000 -0.000  0.475  0.000 -0.004
-0.006  0.009  0.000  0.496 -0.000
 0.000  0.000 -0.004 -0.000  0.315
atom    5   spin  2
eigenvalues:  0.3149916 0.4746813 0.4781379 0.5002138 0.5517785
 eigenvectors
 1  -0.0000000 -0.0000000  0.0250184  0.0000000  0.9996870
 2   0.0000000 -0.0000000 -0.9996870  0.0000000  0.0250184
 3   0.0567768 -0.8792317  0.0000000  0.4729990 -0.0000000
 4   0.0866553  0.4763152 -0.0000000  0.8749941 -0.0000000
 5  -0.9946191 -0.0086915  0.0000000  0.1032338 -0.0000000
 occupations
 0.551  0.002 -0.000 -0.006  0.000
 0.002  0.483 -0.000  0.009  0.000
-0.000 -0.000  0.475  0.000 -0.004
-0.006  0.009  0.000  0.496 -0.000
 0.000  0.000 -0.004 -0.000  0.315
atom    6   Tr[ns(na)]=   4.6407716
atom    6   spin  1
eigenvalues:  0.3164075 0.4740027 0.4775633 0.5015269 0.5508777
 eigenvectors
 1  -0.0000000 -0.0000000  0.0228838  0.0000000  0.9997381
 2   0.0000000 -0.0000000 -0.9997381  0.0000000  0.0228838
 3   0.0519668 -0.9091136  0.0000000  0.4132939 -0.0000000
 4   0.0839435  0.4163650  0.0000000  0.9053141 -0.0000000
 5  -0.9951145 -0.0123530  0.0000000  0.0979513 -0.0000000
 occupations
 0.550  0.002 -0.000 -0.005  0.000
 0.002  0.482 -0.000  0.009  0.000
-0.000 -0.000  0.474  0.000 -0.004
-0.005  0.009  0.000  0.498 -0.000
 0.000  0.000 -0.004 -0.000  0.316
atom    6   spin  2
eigenvalues:  0.3164099 0.4740076 0.4775677 0.5015286 0.5508797
 eigenvectors
 1  -0.0000000 -0.0000000  0.0228826  0.0000000  0.9997382
 2   0.0000000 -0.0000000 -0.9997382  0.0000000  0.0228826
 3   0.0519753 -0.9090972  0.0000000  0.4133289 -0.0000000
 4   0.0839397  0.4164007  0.0000000  0.9052981 -0.0000000
 5  -0.9951144 -0.0123584  0.0000000  0.0979519 -0.0000000
 occupations
 0.550  0.002 -0.000 -0.005  0.000
 0.002  0.482 -0.000  0.009  0.000
-0.000 -0.000  0.474  0.000 -0.004
-0.005  0.009  0.000  0.498 -0.000
 0.000  0.000 -0.004 -0.000  0.316
atom    7   Tr[ns(na)]=   4.6424294
atom    7   spin  1
eigenvalues:  0.3198212 0.4738636 0.4762988 0.5033122 0.5479214
 eigenvectors
 1  -0.0000000 -0.0000000  0.0209830  0.0000000  0.9997798
 2   0.0000000 -0.0000000 -0.9997798  0.0000000  0.0209830
 3   0.0172507 -0.9516600  0.0000000  0.3066688 -0.0000000
 4   0.0896905  0.3069508 -0.0000000  0.9474898 -0.0000000
 5  -0.9958203  0.0111604  0.0000000  0.0906500 -0.0000000
 occupations
 0.548 -0.000 -0.000 -0.004  0.000
-0.000  0.479 -0.000  0.008  0.000
-0.000 -0.000  0.474  0.000 -0.003
-0.004  0.008  0.000  0.501 -0.000
 0.000  0.000 -0.003 -0.000  0.320
atom    7   spin  2
eigenvalues:  0.3198205 0.4738620 0.4762973 0.5033119 0.5479206
 eigenvectors
 1  -0.0000000 -0.0000000  0.0209837  0.0000000  0.9997798
 2   0.0000000 -0.0000000 -0.9997798  0.0000000  0.0209837
 3   0.0172482 -0.9516643  0.0000000  0.3066556 -0.0000000
 4   0.0896909  0.3069374  0.0000000  0.9474941 -0.0000000
 5  -0.9958203  0.0111617  0.0000000  0.0906497 -0.0000000
 occupations
 0.548 -0.000 -0.000 -0.004  0.000
-0.000  0.479 -0.000  0.008  0.000
-0.000 -0.000  0.474  0.000 -0.003
-0.004  0.008  0.000  0.501 -0.000
 0.000  0.000 -0.003 -0.000  0.320
atom    8   Tr[ns(na)]=   4.5497885
atom    8   spin  1
eigenvalues:  0.2786373 0.4586860 0.4890263 0.4948320 0.5538420
 eigenvectors
 1  -0.0000000 -0.0000000  0.0594757  0.0000000  0.9982298
 2  -0.1802729  0.7822955  0.0000000  0.5962511 -0.0000000
 3   0.2075609  0.6227874  0.0000000 -0.7543569 -0.0000000
 4   0.0000000  0.0000000 -0.9982298 -0.0000000  0.0594757
 5  -0.9614677 -0.0122317  0.0000000 -0.2746457 -0.0000000
 occupations
 0.548  0.005 -0.000  0.020  0.000
 0.005  0.470 -0.000 -0.014  0.000
-0.000 -0.000  0.494  0.000 -0.013
 0.020 -0.014  0.000  0.483 -0.000
 0.000  0.000 -0.013 -0.000  0.279
atom    8   spin  2
eigenvalues:  0.2786095 0.4586273 0.4889625 0.4947523 0.5538135
 eigenvectors
 1  -0.0000000 -0.0000000  0.0595093  0.0000000  0.9982278
 2  -0.1799646  0.7831003  0.0000000  0.5952871 -0.0000000
 3  -0.2078650 -0.6217767 -0.0000000  0.7551065  0.0000000
 4   0.0000000  0.0000000 -0.9982278 -0.0000000  0.0595093
 5  -0.9614598 -0.0121531  0.0000000 -0.2746769 -0.0000000
 occupations
 0.548  0.005 -0.000  0.020  0.000
 0.005  0.470 -0.000 -0.014  0.000
-0.000 -0.000  0.494  0.000 -0.013
 0.020 -0.014  0.000  0.483 -0.000
 0.000  0.000 -0.013 -0.000  0.279
atom    9   Tr[ns(na)]=   4.6407829
atom    9   spin  1
eigenvalues:  0.3162520 0.4736542 0.4780663 0.5018630 0.5505560
 eigenvectors
 1  -0.0025415  0.0001219  0.0227842 -0.0047605  0.9997258
 2  -0.0016039 -0.0148819  0.9993544  0.0235159 -0.0226660
 3  -0.0508701  0.9176715  0.0227813 -0.3934023 -0.0026337
 4  -0.0858482 -0.3968596  0.0153426 -0.9137141 -0.0048704
 5   0.9950042  0.0126520  0.0041575 -0.0989217  0.0019621
 occupations
 0.550  0.002  0.000 -0.005  0.001
 0.002  0.482 -0.000  0.009  0.000
 0.000 -0.000  0.474 -0.000 -0.004
-0.005  0.009 -0.000  0.499  0.001
 0.001  0.000 -0.004  0.001  0.316
atom    9   spin  2
eigenvalues:  0.3162522 0.4736539 0.4780661 0.5018632 0.5505561
 eigenvectors
 1  -0.0025417  0.0001218  0.0227848 -0.0047609  0.9997258
 2  -0.0016036 -0.0148862  0.9993542  0.0235192 -0.0226666
 3  -0.0508691  0.9176748  0.0227865 -0.3933944 -0.0026339
 4  -0.0858494 -0.3968517  0.0153441 -0.9137174 -0.0048709
 5   0.9950041  0.0126515  0.0041576 -0.0989223  0.0019623
 occupations
 0.550  0.002  0.000 -0.005  0.001
 0.002  0.482 -0.000  0.009  0.000
 0.000 -0.000  0.474 -0.000 -0.004
-0.005  0.009 -0.000  0.499  0.001
 0.001  0.000 -0.004  0.001  0.316
atom   10   Tr[ns(na)]=   4.6407660
atom   10   spin  1
eigenvalues:  0.3125649 0.4741418 0.4805185 0.5008434 0.5523375
 eigenvectors
 1  -0.0096740  0.0021619  0.0249640 -0.0187541  0.9994633
 2  -0.0181121  0.0793384 -0.9883486 -0.1267365  0.0219614
 3  -0.0588151  0.8916426  0.1275115 -0.4301929 -0.0137551
 4   0.0899886  0.4455124 -0.0792173  0.8870186  0.0185302
 5   0.9939926  0.0138924 -0.0030496 -0.1082506  0.0076359
 occupations
 0.552  0.002 -0.000 -0.006  0.002
 0.002  0.485 -0.000  0.008 -0.000
-0.000 -0.000  0.474 -0.002 -0.004
-0.006  0.008 -0.002  0.497  0.003
 0.002 -0.000 -0.004  0.003  0.313
atom   10   spin  2
eigenvalues:  0.3125571 0.4741255 0.4805066 0.5008383 0.5523325
 eigenvectors
 1  -0.0096765  0.0021617  0.0249748 -0.0187555  0.9994629
 2  -0.0180950  0.0791665 -0.9883773 -0.1266199  0.0219752
 3  -0.0588018  0.8917154  0.1272956 -0.4301078 -0.0137501
 4   0.0900092  0.4453975 -0.0792028  0.8870754  0.0185337
 5   0.9939918  0.0138815 -0.0030471 -0.1082592  0.0076381
 occupations
 0.552  0.002 -0.000 -0.006  0.002
 0.002  0.485 -0.000  0.008 -0.000
-0.000 -0.000  0.474 -0.002 -0.004
-0.006  0.008 -0.002  0.497  0.003
 0.002 -0.000 -0.004  0.003  0.313
atom   11   Tr[ns(na)]=   4.6407829
atom   11   spin  1
eigenvalues:  0.3162520 0.4736542 0.4780663 0.5018630 0.5505560
 eigenvectors
 1   0.0025415 -0.0001219  0.0227842  0.0047605  0.9997258
 2  -0.0016039 -0.0148819 -0.9993544  0.0235159  0.0226660
 3   0.0508701 -0.9176715  0.0227813  0.3934023 -0.0026337
 4  -0.0858482 -0.3968596 -0.0153426 -0.9137141  0.0048704
 5   0.9950042  0.0126520 -0.0041575 -0.0989217 -0.0019621
 occupations
 0.550  0.002 -0.000 -0.005 -0.001
 0.002  0.482  0.000  0.009 -0.000
-0.000  0.000  0.474  0.000 -0.004
-0.005  0.009  0.000  0.499 -0.001
-0.001 -0.000 -0.004 -0.001  0.316
atom   11   spin  2
eigenvalues:  0.3162522 0.4736539 0.4780661 0.5018632 0.5505561
 eigenvectors
 1   0.0025417 -0.0001218  0.0227848  0.0047609  0.9997258
 2  -0.0016036 -0.0148862 -0.9993542  0.0235192  0.0226666
 3   0.0508691 -0.9176748  0.0227865  0.3933944 -0.0026339
 4  -0.0858494 -0.3968517 -0.0153441 -0.9137174  0.0048709
 5   0.9950041  0.0126515 -0.0041576 -0.0989223 -0.0019623
 occupations
 0.550  0.002 -0.000 -0.005 -0.001
 0.002  0.482  0.000  0.009 -0.000
-0.000  0.000  0.474  0.000 -0.004
-0.005  0.009  0.000  0.499 -0.001
-0.001 -0.000 -0.004 -0.001  0.316
atom   12   Tr[ns(na)]=   4.6407660
atom   12   spin  1
eigenvalues:  0.3125649 0.4741418 0.4805185 0.5008434 0.5523375
 eigenvectors
 1   0.0096740 -0.0021619  0.0249640  0.0187541  0.9994633
 2   0.0181121 -0.0793384 -0.9883486  0.1267365  0.0219614
 3  -0.0588151  0.8916426 -0.1275115 -0.4301929  0.0137551
 4   0.0899886  0.4455124  0.0792173  0.8870186 -0.0185302
 5   0.9939926  0.0138924  0.0030496 -0.1082506 -0.0076359
 occupations
 0.552  0.002  0.000 -0.006 -0.002
 0.002  0.485  0.000  0.008  0.000
 0.000  0.000  0.474  0.002 -0.004
-0.006  0.008  0.002  0.497 -0.003
-0.002  0.000 -0.004 -0.003  0.313
atom   12   spin  2
eigenvalues:  0.3125571 0.4741255 0.4805066 0.5008383 0.5523325
 eigenvectors
 1   0.0096765 -0.0021617  0.0249748  0.0187555  0.9994629
 2   0.0180950 -0.0791665 -0.9883773  0.1266199  0.0219752
 3  -0.0588018  0.8917154 -0.1272956 -0.4301078  0.0137501
 4   0.0900092  0.4453975  0.0792028  0.8870754 -0.0185337
 5   0.9939918  0.0138815  0.0030471 -0.1082592 -0.0076381
 occupations
 0.552  0.002  0.000 -0.006 -0.002
 0.002  0.485  0.000  0.008  0.000
 0.000  0.000  0.474  0.002 -0.004
-0.006  0.008  0.002  0.497 -0.003
-0.002  0.000 -0.004 -0.003  0.313
atom   13   Tr[ns(na)]=   4.6424294
atom   13   spin  1
eigenvalues:  0.3198212 0.4738636 0.4762988 0.5033122 0.5479214
 eigenvectors
 1  -0.0000000 -0.0000000 -0.0209830  0.0000000  0.9997798
 2   0.0000000  0.0000000  0.9997798  0.0000000  0.0209830
 3  -0.0172507 -0.9516600  0.0000000 -0.3066688  0.0000000
 4  -0.0896905  0.3069508 -0.0000000 -0.9474898  0.0000000
 5   0.9958203  0.0111604 -0.0000000 -0.0906500  0.0000000
 occupations
 0.548  0.000 -0.000 -0.004  0.000
 0.000  0.479 -0.000 -0.008  0.000
-0.000 -0.000  0.474  0.000  0.003
-0.004 -0.008  0.000  0.501 -0.000
 0.000  0.000  0.003 -0.000  0.320
atom   13   spin  2
eigenvalues:  0.3198205 0.4738620 0.4762973 0.5033119 0.5479206
 eigenvectors
 1  -0.0000000 -0.0000000 -0.0209837  0.0000000  0.9997798
 2   0.0000000  0.0000000  0.9997798  0.0000000  0.0209837
 3  -0.0172482 -0.9516643  0.0000000 -0.3066556  0.0000000
 4  -0.0896909  0.3069374 -0.0000000 -0.9474941  0.0000000
 5   0.9958203  0.0111617 -0.0000000 -0.0906497  0.0000000
 occupations
 0.548  0.000 -0.000 -0.004  0.000
 0.000  0.479 -0.000 -0.008  0.000
-0.000 -0.000  0.474  0.000  0.003
-0.004 -0.008  0.000  0.501 -0.000
 0.000  0.000  0.003 -0.000  0.320
atom   14   Tr[ns(na)]=   4.5497885
atom   14   spin  1
eigenvalues:  0.2786373 0.4586860 0.4890263 0.4948320 0.5538420
 eigenvectors
 1  -0.0000000 -0.0000000 -0.0594757  0.0000000  0.9982298
 2   0.1802729  0.7822955  0.0000000 -0.5962511  0.0000000
 3  -0.2075609  0.6227874  0.0000000  0.7543569  0.0000000
 4   0.0000000 -0.0000000  0.9982298 -0.0000000  0.0594757
 5  -0.9614677  0.0122317  0.0000000 -0.2746457 -0.0000000
 occupations
 0.548 -0.005 -0.000  0.020  0.000
-0.005  0.470 -0.000  0.014  0.000
-0.000 -0.000  0.494  0.000  0.013
 0.020  0.014  0.000  0.483 -0.000
 0.000  0.000  0.013 -0.000  0.279
atom   14   spin  2
eigenvalues:  0.2786095 0.4586273 0.4889625 0.4947523 0.5538135
 eigenvectors
 1  -0.0000000 -0.0000000 -0.0595093  0.0000000  0.9982278
 2   0.1799646  0.7831003  0.0000000 -0.5952871  0.0000000
 3  -0.2078650  0.6217767  0.0000000  0.7551065  0.0000000
 4   0.0000000 -0.0000000  0.9982278 -0.0000000  0.0595093
 5  -0.9614598  0.0121531  0.0000000 -0.2746769 -0.0000000
 occupations
 0.548 -0.005 -0.000  0.020  0.000
-0.005  0.470 -0.000  0.014  0.000
-0.000 -0.000  0.494  0.000  0.013
 0.020  0.014  0.000  0.483 -0.000
 0.000  0.000  0.013 -0.000  0.279
atom   15   Tr[ns(na)]=   4.6407829
atom   15   spin  1
eigenvalues:  0.3162520 0.4736542 0.4780663 0.5018630 0.5505560
 eigenvectors
 1   0.0025415  0.0001219 -0.0227842  0.0047605  0.9997258
 2  -0.0016039  0.0148819  0.9993544  0.0235159  0.0226660
 3  -0.0508701 -0.9176715  0.0227813 -0.3934023  0.0026337
 4   0.0858482 -0.3968596 -0.0153426  0.9137141 -0.0048704
 5   0.9950042 -0.0126520  0.0041575 -0.0989217 -0.0019621
 occupations
 0.550 -0.002  0.000 -0.005 -0.001
-0.002  0.482  0.000 -0.009  0.000
 0.000  0.000  0.474 -0.000  0.004
-0.005 -0.009 -0.000  0.499 -0.001
-0.001  0.000  0.004 -0.001  0.316
atom   15   spin  2
eigenvalues:  0.3162522 0.4736539 0.4780661 0.5018632 0.5505561
 eigenvectors
 1   0.0025417  0.0001218 -0.0227848  0.0047609  0.9997258
 2  -0.0016036  0.0148862  0.9993542  0.0235192  0.0226666
 3  -0.0508691 -0.9176748  0.0227865 -0.3933944  0.0026339
 4   0.0858494 -0.3968517 -0.0153441  0.9137174 -0.0048709
 5   0.9950041 -0.0126515  0.0041576 -0.0989223 -0.0019623
 occupations
 0.550 -0.002  0.000 -0.005 -0.001
-0.002  0.482  0.000 -0.009  0.000
 0.000  0.000  0.474 -0.000  0.004
-0.005 -0.009 -0.000  0.499 -0.001
-0.001  0.000  0.004 -0.001  0.316
atom   16   Tr[ns(na)]=   4.6407660
atom   16   spin  1
eigenvalues:  0.3125649 0.4741418 0.4805185 0.5008434 0.5523375
 eigenvectors
 1   0.0096740  0.0021619 -0.0249640  0.0187541  0.9994633
 2   0.0181121  0.0793384  0.9883486  0.1267365  0.0219614
 3  -0.0588151 -0.8916426  0.1275115 -0.4301929  0.0137551
 4   0.0899886 -0.4455124 -0.0792173  0.8870186 -0.0185302
 5   0.9939926 -0.0138924 -0.0030496 -0.1082506 -0.0076359
 occupations
 0.552 -0.002 -0.000 -0.006 -0.002
-0.002  0.485  0.000 -0.008 -0.000
-0.000  0.000  0.474 -0.002  0.004
-0.006 -0.008 -0.002  0.497 -0.003
-0.002 -0.000  0.004 -0.003  0.313
atom   16   spin  2
eigenvalues:  0.3125571 0.4741255 0.4805066 0.5008383 0.5523325
 eigenvectors
 1   0.0096765  0.0021617 -0.0249748  0.0187555  0.9994629
 2   0.0180950  0.0791665  0.9883773  0.1266199  0.0219752
 3  -0.0588018 -0.8917154  0.1272956 -0.4301078  0.0137501
 4   0.0900092 -0.4453975 -0.0792028  0.8870754 -0.0185337
 5   0.9939918 -0.0138815 -0.0030471 -0.1082592 -0.0076381
 occupations
 0.552 -0.002 -0.000 -0.006 -0.002
-0.002  0.485  0.000 -0.008 -0.000
-0.000  0.000  0.474 -0.002  0.004
-0.006 -0.008 -0.002  0.497 -0.003
-0.002 -0.000  0.004 -0.003  0.313
atom   17   Tr[ns(na)]=   4.6407829
atom   17   spin  1
eigenvalues:  0.3162520 0.4736542 0.4780663 0.5018630 0.5505560
 eigenvectors
 1  -0.0025415 -0.0001219 -0.0227842 -0.0047605  0.9997258
 2  -0.0016039  0.0148819 -0.9993544  0.0235159 -0.0226660
 3   0.0508701  0.9176715  0.0227813  0.3934023  0.0026337
 4   0.0858482 -0.3968596  0.0153426  0.9137141  0.0048704
 5   0.9950042 -0.0126520 -0.0041575 -0.0989217  0.0019621
 occupations
 0.550 -0.002 -0.000 -0.005  0.001
-0.002  0.482 -0.000 -0.009 -0.000
-0.000 -0.000  0.474  0.000  0.004
-0.005 -0.009  0.000  0.499  0.001
 0.001 -0.000  0.004  0.001  0.316
atom   17   spin  2
eigenvalues:  0.3162522 0.4736539 0.4780661 0.5018632 0.5505561
 eigenvectors
 1  -0.0025417 -0.0001218 -0.0227848 -0.0047609  0.9997258
 2  -0.0016036  0.0148862 -0.9993542  0.0235192 -0.0226666
 3   0.0508691  0.9176748  0.0227865  0.3933944  0.0026339
 4   0.0858494 -0.3968517  0.0153441  0.9137174  0.0048709
 5   0.9950041 -0.0126515 -0.0041576 -0.0989223  0.0019623
 occupations
 0.550 -0.002 -0.000 -0.005  0.001
-0.002  0.482 -0.000 -0.009 -0.000
-0.000 -0.000  0.474  0.000  0.004
-0.005 -0.009  0.000  0.499  0.001
 0.001 -0.000  0.004  0.001  0.316
atom   18   Tr[ns(na)]=   4.6407660
atom   18   spin  1
eigenvalues:  0.3125649 0.4741418 0.4805185 0.5008434 0.5523375
 eigenvectors
 1  -0.0096740 -0.0021619 -0.0249640 -0.0187541  0.9994633
 2  -0.0181121 -0.0793384  0.9883486 -0.1267365  0.0219614
 3  -0.0588151 -0.8916426 -0.1275115 -0.4301929 -0.0137551
 4   0.0899886 -0.4455124  0.0792173  0.8870186  0.0185302
 5   0.9939926 -0.0138924  0.0030496 -0.1082506  0.0076359
 occupations
 0.552 -0.002  0.000 -0.006  0.002
-0.002  0.485 -0.000 -0.008  0.000
 0.000 -0.000  0.474  0.002  0.004
-0.006 -0.008  0.002  0.497  0.003
 0.002  0.000  0.004  0.003  0.313
atom   18   spin  2
eigenvalues:  0.3125571 0.4741255 0.4805066 0.5008383 0.5523325
 eigenvectors
 1  -0.0096765 -0.0021617 -0.0249748 -0.0187555  0.9994629
 2  -0.0180950 -0.0791665  0.9883773 -0.1266199  0.0219752
 3  -0.0588018 -0.8917154 -0.1272956 -0.4301078 -0.0137501
 4   0.0900092 -0.4453975  0.0792028  0.8870754  0.0185337
 5   0.9939918 -0.0138815  0.0030471 -0.1082592  0.0076381
 occupations
 0.552 -0.002  0.000 -0.006  0.002
-0.002  0.485 -0.000 -0.008  0.000
 0.000 -0.000  0.474  0.002  0.004
-0.006 -0.008  0.002  0.497  0.003
 0.002  0.000  0.004  0.003  0.313
atom   19   Tr[ns(na)]=   4.6393878
atom   19   spin  1
eigenvalues:  0.3167447 0.4741134 0.4767249 0.5000889 0.5520441
 eigenvectors
 1   0.0042894 -0.0020132 -0.0288546  0.0036442  0.9995657
 2  -0.0484678 -0.8228618 -0.2145337 -0.5239196 -0.0057322
 3  -0.0055588 -0.2118883  0.9746390 -0.0660961  0.0279731
 4   0.0717237 -0.5272449 -0.0567523  0.8447548 -0.0060878
 5   0.9962215 -0.0032479 -0.0007889 -0.0866928 -0.0039883
 occupations
 0.552 -0.001 -0.000 -0.005 -0.001
-0.001  0.481  0.000 -0.012  0.000
-0.000  0.000  0.477 -0.001  0.005
-0.005 -0.012 -0.001  0.493 -0.001
-0.001  0.000  0.005 -0.001  0.317
atom   19   spin  2
eigenvalues:  0.3167371 0.4741011 0.4767113 0.5000833 0.5520390
 eigenvectors
 1   0.0042911 -0.0020133 -0.0288614  0.0036465  0.9995655
 2  -0.0484464 -0.8229654 -0.2144097 -0.5238097 -0.0057296
 3  -0.0055477 -0.2117903  0.9746665 -0.0660037  0.0279805
 4   0.0717361 -0.5271227 -0.0567468  0.8448303 -0.0060902
 5   0.9962217 -0.0032345 -0.0007886 -0.0866909 -0.0039897
 occupations
 0.552 -0.001 -0.000 -0.005 -0.001
-0.001  0.481  0.000 -0.012  0.000
-0.000  0.000  0.477 -0.001  0.005
-0.005 -0.012 -0.001  0.493 -0.001
-0.001  0.000  0.005 -0.001  0.317
atom   20   Tr[ns(na)]=   4.6416159
atom   20   spin  1
eigenvalues:  0.3180166 0.4737286 0.4763971 0.5021687 0.5504953
 eigenvectors
 1   0.0011437 -0.0012473 -0.0214063  0.0025817  0.9997661
 2  -0.0057946 -0.0857612  0.9959115 -0.0178672  0.0212696
 3  -0.0493488 -0.9145292 -0.0860350 -0.3921674 -0.0019140
 4  -0.0786754  0.3950523  0.0170730 -0.9151182  0.0033115
 5  -0.9956606  0.0146089 -0.0029055  0.0918554  0.0008578
 occupations
 0.550 -0.002  0.000 -0.005 -0.000
-0.002  0.480  0.000 -0.009  0.000
 0.000  0.000  0.474 -0.000  0.003
-0.005 -0.009 -0.000  0.499 -0.000
-0.000  0.000  0.003 -0.000  0.318
atom   20   spin  2
eigenvalues:  0.3180173 0.4737297 0.4763978 0.5021692 0.5504956
 eigenvectors
 1   0.0011439 -0.0012473 -0.0214062  0.0025819  0.9997661
 2  -0.0057938 -0.0857588  0.9959118 -0.0178666  0.0212695
 3  -0.0493480 -0.9145283 -0.0860325 -0.3921703 -0.0019138
 4  -0.0786752  0.3950551  0.0170729 -0.9151171  0.0033117
 5  -0.9956606  0.0146079 -0.0029049  0.0918549  0.0008581
 occupations
 0.550 -0.002  0.000 -0.005 -0.000
-0.002  0.480  0.000 -0.009  0.000
 0.000  0.000  0.474 -0.000  0.003
-0.005 -0.009 -0.000  0.499 -0.000
-0.000  0.000  0.003 -0.000  0.318
atom   21   Tr[ns(na)]=   4.6393878
atom   21   spin  1
eigenvalues:  0.3167447 0.4741134 0.4767249 0.5000889 0.5520441
 eigenvectors
 1  -0.0042894  0.0020132 -0.0288546 -0.0036442  0.9995657
 2   0.0484678  0.8228618 -0.2145337  0.5239196 -0.0057322
 3  -0.0055588 -0.2118883 -0.9746390 -0.0660961 -0.0279731
 4   0.0717237 -0.5272449  0.0567523  0.8447548  0.0060878
 5   0.9962215 -0.0032479  0.0007889 -0.0866928  0.0039883
 occupations
 0.552 -0.001  0.000 -0.005  0.001
-0.001  0.481 -0.000 -0.012 -0.000
 0.000 -0.000  0.477  0.001  0.005
-0.005 -0.012  0.001  0.493  0.001
 0.001 -0.000  0.005  0.001  0.317
atom   21   spin  2
eigenvalues:  0.3167371 0.4741011 0.4767113 0.5000833 0.5520390
 eigenvectors
 1  -0.0042911  0.0020133 -0.0288614 -0.0036465  0.9995655
 2   0.0484464  0.8229654 -0.2144097  0.5238097 -0.0057296
 3  -0.0055477 -0.2117903 -0.9746665 -0.0660037 -0.0279805
 4   0.0717361 -0.5271227  0.0567468  0.8448303  0.0060902
 5   0.9962217 -0.0032345  0.0007886 -0.0866909  0.0039897
 occupations
 0.552 -0.001  0.000 -0.005  0.001
-0.001  0.481 -0.000 -0.012 -0.000
 0.000 -0.000  0.477  0.001  0.005
-0.005 -0.012  0.001  0.493  0.001
 0.001 -0.000  0.005  0.001  0.317
atom   22   Tr[ns(na)]=   4.6416159
atom   22   spin  1
eigenvalues:  0.3180166 0.4737286 0.4763971 0.5021687 0.5504953
 eigenvectors
 1  -0.0011437  0.0012473 -0.0214063 -0.0025817  0.9997661
 2  -0.0057946 -0.0857612 -0.9959115 -0.0178672 -0.0212696
 3   0.0493488  0.9145292 -0.0860350  0.3921674 -0.0019140
 4  -0.0786754  0.3950523 -0.0170730 -0.9151182 -0.0033115
 5  -0.9956606  0.0146089  0.0029055  0.0918554 -0.0008578
 occupations
 0.550 -0.002 -0.000 -0.005  0.000
-0.002  0.480 -0.000 -0.009 -0.000
-0.000 -0.000  0.474  0.000  0.003
-0.005 -0.009  0.000  0.499  0.000
 0.000 -0.000  0.003  0.000  0.318
atom   22   spin  2
eigenvalues:  0.3180173 0.4737297 0.4763978 0.5021692 0.5504956
 eigenvectors
 1  -0.0011439  0.0012473 -0.0214062 -0.0025819  0.9997661
 2  -0.0057938 -0.0857588 -0.9959118 -0.0178666 -0.0212695
 3   0.0493480  0.9145283 -0.0860325  0.3921703 -0.0019138
 4  -0.0786752  0.3950551 -0.0170729 -0.9151171 -0.0033117
 5  -0.9956606  0.0146079  0.0029049  0.0918549 -0.0008581
 occupations
 0.550 -0.002 -0.000 -0.005  0.000
-0.002  0.480 -0.000 -0.009 -0.000
-0.000 -0.000  0.474  0.000  0.003
-0.005 -0.009  0.000  0.499  0.000
 0.000 -0.000  0.003  0.000  0.318
atom   23   Tr[ns(na)]=   4.6396089
atom   23   spin  1
eigenvalues:  0.3149926 0.4746820 0.4781384 0.5002141 0.5517786
 eigenvectors
 1  -0.0000000 -0.0000000 -0.0250154  0.0000000  0.9996871
 2   0.0000000  0.0000000  0.9996871  0.0000000  0.0250154
 3  -0.0567761 -0.8792308  0.0000000 -0.4730007  0.0000000
 4  -0.0866547  0.4763168 -0.0000000 -0.8749933  0.0000000
 5   0.9946192 -0.0086909 -0.0000000 -0.1032329  0.0000000
 occupations
 0.551 -0.002 -0.000 -0.006  0.000
-0.002  0.483 -0.000 -0.009  0.000
-0.000 -0.000  0.475  0.000  0.004
-0.006 -0.009  0.000  0.496 -0.000
 0.000  0.000  0.004 -0.000  0.315
atom   23   spin  2
eigenvalues:  0.3149916 0.4746813 0.4781379 0.5002138 0.5517785
 eigenvectors
 1  -0.0000000 -0.0000000 -0.0250184  0.0000000  0.9996870
 2   0.0000000  0.0000000  0.9996870  0.0000000  0.0250184
 3  -0.0567768 -0.8792317  0.0000000 -0.4729990  0.0000000
 4  -0.0866553  0.4763152 -0.0000000 -0.8749941  0.0000000
 5   0.9946191 -0.0086915 -0.0000000 -0.1032338  0.0000000
 occupations
 0.551 -0.002 -0.000 -0.006  0.000
-0.002  0.483 -0.000 -0.009  0.000
-0.000 -0.000  0.475  0.000  0.004
-0.006 -0.009  0.000  0.496 -0.000
 0.000  0.000  0.004 -0.000  0.315
atom   24   Tr[ns(na)]=   4.6407716
atom   24   spin  1
eigenvalues:  0.3164075 0.4740027 0.4775633 0.5015269 0.5508777
 eigenvectors
 1  -0.0000000 -0.0000000 -0.0228838  0.0000000  0.9997381
 2   0.0000000  0.0000000  0.9997381  0.0000000  0.0228838
 3  -0.0519668 -0.9091136  0.0000000 -0.4132939  0.0000000
 4  -0.0839435  0.4163650 -0.0000000 -0.9053141  0.0000000
 5   0.9951145 -0.0123530 -0.0000000 -0.0979513  0.0000000
 occupations
 0.550 -0.002 -0.000 -0.005  0.000
-0.002  0.482 -0.000 -0.009  0.000
-0.000 -0.000  0.474  0.000  0.004
-0.005 -0.009  0.000  0.498 -0.000
 0.000  0.000  0.004 -0.000  0.316
atom   24   spin  2
eigenvalues:  0.3164099 0.4740076 0.4775677 0.5015286 0.5508797
 eigenvectors
 1  -0.0000000 -0.0000000 -0.0228826  0.0000000  0.9997382
 2   0.0000000  0.0000000  0.9997382  0.0000000  0.0228826
 3  -0.0519753 -0.9090972  0.0000000 -0.4133289  0.0000000
 4  -0.0839397  0.4164007 -0.0000000 -0.9052981  0.0000000
 5   0.9951144 -0.0123584 -0.0000000 -0.0979519  0.0000000
 occupations
 0.550 -0.002 -0.000 -0.005  0.000
-0.002  0.482 -0.000 -0.009  0.000
-0.000 -0.000  0.474  0.000  0.004
-0.005 -0.009  0.000  0.498 -0.000
 0.000  0.000  0.004 -0.000  0.316
nsum = 111.1954074
 exit write_ns
 Atomic wfc used for LDA+U Projector are NOT orthogonalized
     Starting wfc are  480 atomic +  326 random wfc

     total cpu time spent up to now is      3.78 secs

     per-process dynamical memory:   109.1 Mb

     Band Structure Calculation
     Davidson diagonalization with overlap

     ethr =  1.49E-12,  avg # of iterations = 42.5

     total cpu time spent up to now is    390.07 secs

     End of band structure calculation

 ------ SPIN UP ------------


          k = 0.0000 0.0000 0.0000     band energies (ev):

   -60.8715 -60.8689 -59.9328 -59.9310 -59.9306 -59.9288 -59.9245 -59.9227
   -59.9223 -59.9209 -59.8462 -59.8441 -59.7722 -59.7701 -59.7126 -59.7111
   -59.7105 -59.7089 -59.6958 -59.6937 -59.6936 -59.6918 -59.6404 -59.6383
   -34.9605 -34.8886 -34.7453 -34.7376 -34.6619 -34.6588 -33.8951 -33.8927
   -33.8862 -33.8844 -33.8813 -33.8791 -33.8750 -33.8723 -33.8706 -33.8683
   -33.8483 -33.8378 -33.8345 -33.8341 -33.8305 -33.8269 -33.8210 -33.8191
   -33.8017 -33.7970 -33.7847 -33.7820 -33.7756 -33.7711 -33.7615 -33.7566
   -33.7448 -33.7247 -33.7225 -33.7173 -33.7122 -33.7053 -33.6817 -33.6783
   -33.6742 -33.6720 -33.6707 -33.6692 -33.6632 -33.6631 -33.6598 -33.6462
   -33.6383 -33.6302 -33.6262 -33.6256 -33.6219 -33.6131 -33.6025 -33.5997
   -33.5965 -33.5962 -33.5821 -33.5757 -33.5611 -33.5597 -33.5482 -33.5461
   -33.5380 -33.5279 -33.5219 -33.5161 -33.5106 -33.4805 -33.4747 -33.4740
   -17.2544 -13.5711 -13.4935 -13.2475 -13.1157 -13.0233 -12.9040 -12.9015
   -12.7931 -12.6813 -12.6615 -12.5393 -12.5165 -12.5135 -12.4670 -12.4530
   -12.4073 -12.2977 -12.2052 -12.1907 -12.1679 -12.1635 -12.1164 -12.1112
   -12.0833 -12.0618 -12.0490 -12.0261 -12.0070 -11.9512 -11.9271 -11.9018
   -11.8957 -11.8902 -11.8734 -11.8575 -11.8037 -11.7773 -11.7289 -11.7214
   -11.6913 -11.6788 -11.6724 -11.6667 -11.6490 -11.6422 -11.6003 -11.5983
   -11.5497 -11.5368 -11.4790 -11.4727 -11.4661 -11.4622 -11.4337 -11.4304
   -11.4162 -11.4025 -11.3757 -11.3400  -3.9381  -2.3834  -2.2444  -0.8303
    -0.7932  -0.7589  -0.7472  -0.4589  -0.4541  -0.4216  -0.4158  -0.3235
    -0.2353  -0.2297  -0.2293  -0.1817  -0.1057  -0.0563  -0.0518   0.0257
     0.0533   0.0726   0.0809   0.0884   0.1053   0.1119   0.1185   0.1733
     0.1778   0.1832   0.1893   0.2739   0.3014   0.3346   0.3607   0.3692
     0.3801   0.4117   0.4326   0.4679   0.5095   0.5153   0.5780   0.5968
     0.6636   0.6901   0.7041   0.7201   0.7484   0.7884   0.8046   0.8189
     0.8239   0.8643   0.8883   1.0502   1.0605   1.1591   1.1780   1.2321
     1.2693   1.2938   1.3041   1.3686   1.3706   1.3837   1.3993   1.4009
     1.5137   1.5152   1.5636   1.5636   1.5638   1.5679   1.5684   1.5872
     1.6123   1.6365   1.6408   1.6741   1.6824   1.6904   1.7786   1.8091
     1.8358   1.8931   1.9368   1.9761   1.9935   2.0056   2.0136   2.0287
     2.0338   2.0744   2.0841   2.0891   2.0928   2.0991   2.1179   2.1893
     2.2292   2.2394   2.2667   2.3135   2.3248   2.3500   2.3592   2.3791
     2.3879   2.4453   2.4796   2.4878   2.4967   2.5355   2.5515   2.5541
     2.5832   2.5921   2.6075   2.6393   2.6683   2.6788   2.6808   2.6997
     2.7012   2.7308   2.7874   2.8751   2.8831   2.9227   2.9307   2.9418
     2.9788   2.9907   3.0456   3.0915   3.1527   3.1850   3.2136   3.2142
     3.2227   3.2439   3.2692   3.3131   3.3275   3.3676   3.3753   3.3794
     3.4257   3.4396   3.4585   3.4802   3.4851   3.4960   3.5173   3.5538
     3.5741   3.6772   3.6857   3.6882   3.6953   3.7432   3.7859   3.8636
     3.8976   3.9281   3.9346   3.9551   4.0279   4.1143   4.1341   4.1406
     4.1460   4.2029   4.2436   4.2578   4.2954   4.3083   4.3529   4.3977
     5.9024   6.4673   6.4841   6.5009   6.5513   6.6399   6.7454   6.8112
     6.8708   6.8997   6.9014   6.9103   7.0222   7.0932   7.0994   7.1289
     7.2113   7.2593   7.4100   7.4797   7.5193   7.5822   7.6224   7.6246
     7.6507   7.6542   7.6850   7.7054   7.7472   7.7584   7.7938   7.8165
     7.8397   7.8679   7.8686   7.8698   7.8994   7.9155   7.9418   7.9596
     7.9672   7.9759   7.9865   8.0295   8.0358   8.0615   8.0618   8.0958
     8.0976   8.1021   8.1044   8.1694   8.2125   8.2725   8.3110   8.3120
     8.3279   8.3331   8.3787   8.3856   8.4455   8.4761   8.5143   8.5387
     8.5409   8.5573   8.5857   8.5975   8.5991   8.6283   8.7422   8.7493
     8.8734   8.9138   8.9162   8.9563   8.9780   9.0628   9.0687   9.1080
     9.2323   9.2355   9.2369   9.2823   9.2843   9.4012   9.4323   9.5544
     9.5705   9.6800   9.7160   9.8068   9.8427   9.8486   9.9382   9.9405
     9.9957  10.0357  10.1339  10.1871  10.2009  10.2112  10.2894  10.3081
    10.3127  10.3203  10.3537  10.5442  10.5850  10.5934  10.7739  10.8637
    10.8665  10.8936  10.9128  10.9755  11.1256  11.1393  11.1931  11.2224
    11.7648  12.9733  13.5477  13.6375  13.8690  13.9892  14.2548  14.2775
    14.3586  14.6295  14.7861  14.9245  14.9717  15.0921  15.5296  15.5447
    15.5484  16.0302  16.2084  16.2460  16.5256  16.5918  16.6606  16.6911
    16.7874  16.9701  17.0133  17.2364  17.2385  17.3190  17.3867  17.4396
    17.4503  17.5584  17.6745  17.7642  17.8012  17.8292  17.8314  17.9722
    18.4168  18.4973  18.5695  18.6594  18.7050  18.7212  18.7840  18.8407
    18.9967  19.0147  19.0720  19.0964  19.1540  19.1604  19.1954  19.2451
    19.2452  19.3753  19.3800  19.4449  19.4790  19.5169  19.5426  19.5772
    19.5859  19.5869  19.6182  19.6242  19.6862  19.7737  19.8471  19.8514
    19.8552  19.8698  19.9391  19.9429  20.0311  20.1678  20.2108  20.3045
    20.3157  20.3218  20.3561  20.4187  20.5822  20.6359  20.7469  20.8045
    20.8321  20.8737  20.9504  20.9703  21.0496  21.0917  21.1159  21.1173
    21.1305  21.2612  21.2804  21.4247  21.6689  21.8323  21.8381  21.9407
    21.9719  21.9942  22.0083  22.0474  22.1030  22.1376  22.1719  22.2528
    22.2760  22.2877  22.3235  22.3336  22.3784  22.3818  22.3870  22.4527
    22.4686  22.4850  22.5537  22.5574  22.5586  22.5984  22.7286  22.7296
    22.8116  22.8477  22.8919  22.9779  22.9792  23.0674  23.0694  23.0847
    23.2094  23.2159  23.2569  23.2658  23.3013  23.3603  23.4154  23.5477
    23.5801  23.5897  23.6442  23.8354  23.8374  23.8624  23.8689  23.9118
    23.9140  23.9994  24.1574  24.1721  24.2308  24.2598  24.3241  24.4570
    24.5311  24.6336  24.6755  24.6940  24.7109  24.9091  24.9313  24.9896
    25.0925  25.1646  25.2128  25.2837  25.4467  25.4507  25.6957  25.7156
    25.7551  25.7626  25.7716  25.9578  25.9930  26.0493  26.0561  26.1447
    26.1470  26.2256  26.4328  26.4467  26.4909  26.5356  26.5496  26.5665
    26.6595  26.6766  26.6881  26.6994  26.7361  26.7432  26.8051  26.8290
    26.9938  27.0244  27.0306  27.0473  27.1952  27.2249  27.3506  27.5357
    27.5761  27.6044  27.8901  27.9819  28.0562  28.0605  28.0606  28.0870
    28.1117  28.1138  28.1407  28.1597  28.1656  28.2447  28.2630  28.2760
    28.3403  28.3769  28.4074  28.4129  28.5746  28.8127  28.8187  28.8538
    28.8657  29.0946  29.1066  29.1415  29.1822  29.1843  29.2330  29.2551
    29.4393  29.5457  29.5516  29.6579  29.6831  29.8274  29.8319  30.0359
    30.0700  30.2035  30.2815  30.3423  30.4032  30.4658  30.5228  30.5278
    30.5655  30.5913  30.6096  30.6385  30.7348  30.7693  30.7863  30.8746
    30.9347  30.9875  31.0014  31.0259  31.0580  31.0697  31.0775  31.1455
    31.1534  31.2142  31.2856  31.3679  31.3749  31.3969  31.4201  31.4623
    31.5132  31.5526  31.5878  31.6910  31.7380  31.7432  31.7502  31.9520
    31.9701  31.9898  32.0659  32.1315  32.1482  32.1824  32.2245  32.3018
    32.3562  32.3595  32.4003  32.5040  32.5669  32.5904  32.6495  32.8140
    32.8507  32.8535  32.9528  32.9690  32.9860  32.9916  32.9969  33.0405
    33.0409  33.0668  33.1452  33.2212  33.2944  33.3121  33.3911  33.4374
    33.4564  33.4581  33.5393  33.6198  33.6228  33.6402  33.6486  33.6888
    33.6900  33.7139  33.7227  33.7866  33.8046  33.8111  33.8249  33.8593
    33.9362  33.9569  34.0595  34.0656  34.0660  34.0828  34.1688  34.2060
    34.2154  34.2193  34.2408  34.2419  34.2709  34.4586

 ------ SPIN DOWN ----------


          k = 0.0000 0.0000 0.0000     band energies (ev):

   -60.8712 -60.8686 -59.9327 -59.9310 -59.9306 -59.9287 -59.9244 -59.9226
   -59.9223 -59.9208 -59.8462 -59.8441 -59.7722 -59.7701 -59.7126 -59.7111
   -59.7105 -59.7089 -59.6958 -59.6937 -59.6936 -59.6918 -59.6404 -59.6383
   -34.9603 -34.8884 -34.7450 -34.7374 -34.6617 -34.6586 -33.8950 -33.8926
   -33.8862 -33.8843 -33.8812 -33.8791 -33.8749 -33.8722 -33.8706 -33.8683
   -33.8483 -33.8377 -33.8345 -33.8341 -33.8305 -33.8268 -33.8209 -33.8191
   -33.8017 -33.7970 -33.7846 -33.7820 -33.7755 -33.7711 -33.7614 -33.7566
   -33.7447 -33.7247 -33.7225 -33.7173 -33.7122 -33.7053 -33.6817 -33.6783
   -33.6742 -33.6720 -33.6707 -33.6692 -33.6632 -33.6631 -33.6598 -33.6462
   -33.6383 -33.6302 -33.6261 -33.6256 -33.6219 -33.6131 -33.6025 -33.5997
   -33.5965 -33.5962 -33.5821 -33.5757 -33.5611 -33.5597 -33.5482 -33.5461
   -33.5380 -33.5279 -33.5219 -33.5161 -33.5106 -33.4806 -33.4747 -33.4740
   -17.2544 -13.5711 -13.4935 -13.2475 -13.1157 -13.0233 -12.9041 -12.9015
   -12.7931 -12.6814 -12.6615 -12.5394 -12.5166 -12.5135 -12.4670 -12.4531
   -12.4074 -12.2977 -12.2052 -12.1907 -12.1679 -12.1635 -12.1164 -12.1113
   -12.0833 -12.0618 -12.0490 -12.0261 -12.0070 -11.9512 -11.9271 -11.9018
   -11.8957 -11.8902 -11.8734 -11.8575 -11.8037 -11.7773 -11.7289 -11.7214
   -11.6913 -11.6788 -11.6724 -11.6668 -11.6491 -11.6422 -11.6003 -11.5984
   -11.5497 -11.5368 -11.4790 -11.4727 -11.4661 -11.4622 -11.4337 -11.4304
   -11.4162 -11.4026 -11.3757 -11.3400  -3.9380  -2.3833  -2.2444  -0.8303
    -0.7932  -0.7589  -0.7471  -0.4589  -0.4541  -0.4216  -0.4158  -0.3235
    -0.2353  -0.2297  -0.2293  -0.1817  -0.1057  -0.0563  -0.0518   0.0257
     0.0533   0.0726   0.0809   0.0885   0.1053   0.1120   0.1185   0.1733
     0.1778   0.1832   0.1893   0.2739   0.3014   0.3346   0.3607   0.3692
     0.3801   0.4117   0.4326   0.4679   0.5095   0.5153   0.5780   0.5968
     0.6636   0.6901   0.7041   0.7201   0.7484   0.7884   0.8046   0.8189
     0.8239   0.8642   0.8883   1.0502   1.0605   1.1591   1.1780   1.2321
     1.2693   1.2937   1.3041   1.3686   1.3706   1.3837   1.3993   1.4008
     1.5137   1.5152   1.5636   1.5636   1.5638   1.5679   1.5684   1.5872
     1.6122   1.6365   1.6408   1.6741   1.6824   1.6904   1.7786   1.8091
     1.8358   1.8931   1.9368   1.9761   1.9935   2.0056   2.0136   2.0287
     2.0338   2.0744   2.0841   2.0891   2.0928   2.0991   2.1179   2.1893
     2.2291   2.2393   2.2667   2.3135   2.3248   2.3500   2.3592   2.3790
     2.3879   2.4453   2.4796   2.4878   2.4967   2.5354   2.5515   2.5541
     2.5832   2.5921   2.6075   2.6392   2.6683   2.6788   2.6808   2.6997
     2.7012   2.7308   2.7873   2.8751   2.8831   2.9227   2.9307   2.9418
     2.9788   2.9907   3.0456   3.0915   3.1526   3.1850   3.2135   3.2142
     3.2226   3.2439   3.2691   3.3131   3.3275   3.3676   3.3753   3.3794
     3.4257   3.4396   3.4585   3.4802   3.4851   3.4960   3.5173   3.5538
     3.5741   3.6772   3.6857   3.6882   3.6953   3.7431   3.7859   3.8636
     3.8976   3.9281   3.9346   3.9551   4.0279   4.1143   4.1341   4.1406
     4.1460   4.2029   4.2436   4.2578   4.2954   4.3083   4.3528   4.3977
     5.9026   6.4675   6.4841   6.5010   6.5514   6.6399   6.7454   6.8113
     6.8708   6.8997   6.9014   6.9106   7.0224   7.0932   7.0994   7.1290
     7.2115   7.2594   7.4101   7.4797   7.5193   7.5822   7.6224   7.6247
     7.6508   7.6542   7.6850   7.7054   7.7472   7.7585   7.7938   7.8166
     7.8397   7.8679   7.8686   7.8699   7.8994   7.9155   7.9418   7.9597
     7.9672   7.9760   7.9865   8.0296   8.0358   8.0615   8.0618   8.0959
     8.0976   8.1021   8.1044   8.1694   8.2126   8.2725   8.3111   8.3120
     8.3279   8.3331   8.3787   8.3856   8.4456   8.4761   8.5143   8.5387
     8.5409   8.5573   8.5857   8.5976   8.5991   8.6283   8.7423   8.7494
     8.8734   8.9138   8.9162   8.9563   8.9781   9.0628   9.0687   9.1080
     9.2323   9.2355   9.2369   9.2823   9.2844   9.4013   9.4323   9.5544
     9.5705   9.6800   9.7160   9.8069   9.8427   9.8487   9.9382   9.9405
     9.9957  10.0357  10.1339  10.1871  10.2009  10.2112  10.2894  10.3081
    10.3127  10.3203  10.3537  10.5442  10.5850  10.5934  10.7739  10.8637
    10.8665  10.8937  10.9128  10.9755  11.1256  11.1393  11.1931  11.2224
    11.7647  12.9733  13.5477  13.6375  13.8690  13.9892  14.2548  14.2775
    14.3586  14.6295  14.7861  14.9245  14.9717  15.0921  15.5296  15.5447
    15.5483  16.0302  16.2084  16.2460  16.5256  16.5918  16.6606  16.6911
    16.7874  16.9701  17.0132  17.2364  17.2385  17.3190  17.3867  17.4396
    17.4503  17.5584  17.6745  17.7642  17.8012  17.8292  17.8314  17.9722
    18.4168  18.4973  18.5695  18.6594  18.7050  18.7212  18.7840  18.8407
    18.9968  19.0147  19.0720  19.0964  19.1540  19.1604  19.1954  19.2451
    19.2452  19.3753  19.3800  19.4449  19.4790  19.5169  19.5426  19.5772
    19.5859  19.5869  19.6182  19.6242  19.6861  19.7737  19.8471  19.8514
    19.8552  19.8698  19.9391  19.9429  20.0311  20.1678  20.2108  20.3045
    20.3157  20.3218  20.3561  20.4187  20.5822  20.6359  20.7469  20.8045
    20.8321  20.8737  20.9503  20.9703  21.0496  21.0917  21.1159  21.1173
    21.1305  21.2612  21.2804  21.4247  21.6689  21.8323  21.8381  21.9407
    21.9719  21.9942  22.0083  22.0474  22.1030  22.1376  22.1719  22.2528
    22.2760  22.2877  22.3235  22.3336  22.3784  22.3818  22.3870  22.4527
    22.4686  22.4850  22.5537  22.5574  22.5586  22.5984  22.7286  22.7296
    22.8116  22.8477  22.8919  22.9779  22.9793  23.0674  23.0694  23.0847
    23.2094  23.2159  23.2568  23.2658  23.3013  23.3603  23.4154  23.5477
    23.5801  23.5897  23.6442  23.8355  23.8375  23.8624  23.8689  23.9118
    23.9140  23.9994  24.1574  24.1721  24.2308  24.2598  24.3241  24.4570
    24.5311  24.6336  24.6755  24.6940  24.7109  24.9091  24.9313  24.9896
    25.0925  25.1646  25.2128  25.2837  25.4467  25.4507  25.6957  25.7156
    25.7551  25.7626  25.7716  25.9578  25.9930  26.0493  26.0561  26.1448
    26.1470  26.2256  26.4329  26.4467  26.4909  26.5356  26.5496  26.5665
    26.6595  26.6766  26.6881  26.6994  26.7361  26.7432  26.8051  26.8290
    26.9938  27.0244  27.0306  27.0473  27.1953  27.2249  27.3506  27.5357
    27.5761  27.6044  27.8901  27.9819  28.0562  28.0605  28.0606  28.0870
    28.1117  28.1138  28.1407  28.1597  28.1656  28.2447  28.2630  28.2760
    28.3403  28.3769  28.4074  28.4129  28.5746  28.8127  28.8187  28.8538
    28.8657  29.0946  29.1066  29.1415  29.1822  29.1843  29.2330  29.2551
    29.4393  29.5457  29.5516  29.6579  29.6831  29.8274  29.8319  30.0359
    30.0700  30.2035  30.2815  30.3423  30.4033  30.4658  30.5228  30.5278
    30.5655  30.5913  30.6096  30.6385  30.7348  30.7693  30.7863  30.8746
    30.9347  30.9875  31.0014  31.0259  31.0580  31.0697  31.0775  31.1455
    31.1534  31.2142  31.2856  31.3679  31.3749  31.3969  31.4201  31.4623
    31.5132  31.5526  31.5878  31.6910  31.7380  31.7432  31.7502  31.9520
    31.9701  31.9898  32.0659  32.1315  32.1482  32.1824  32.2245  32.3018
    32.3562  32.3595  32.4003  32.5040  32.5669  32.5904  32.6495  32.8141
    32.8507  32.8535  32.9528  32.9690  32.9860  32.9916  32.9969  33.0405
    33.0409  33.0668  33.1452  33.2212  33.2944  33.3122  33.3911  33.4374
    33.4564  33.4581  33.5394  33.6198  33.6228  33.6402  33.6486  33.6888
    33.6900  33.7139  33.7227  33.7866  33.8046  33.8111  33.8249  33.8593
    33.9362  33.9569  34.0595  34.0656  34.0660  34.0828  34.1688  34.2060
    34.2154  34.2193  34.2408  34.2419  34.2709  34.4586

     the Fermi energy is     5.0601 ev

     Writing output data file v2o5.O67-FCH.save
 
     init_run     :      2.95s CPU      3.53s WALL (       1 calls)
     electrons    :    385.01s CPU    386.30s WALL (       1 calls)

     Called by init_run:
     wfcinit      :      0.26s CPU      0.28s WALL (       1 calls)
     potinit      :      0.21s CPU      0.22s WALL (       1 calls)

     Called by electrons:
     c_bands      :    385.00s CPU    386.29s WALL (       1 calls)
     v_of_rho     :      0.08s CPU      0.09s WALL (       1 calls)
     newd         :      1.07s CPU      1.07s WALL (       1 calls)

     Called by c_bands:
     init_us_2    :      0.00s CPU      0.01s WALL (       4 calls)
     cegterg      :    380.16s CPU    381.38s WALL (       6 calls)

     Called by *egterg:
     h_psi        :     54.02s CPU     54.24s WALL (      93 calls)
     s_psi        :      2.48s CPU      2.48s WALL (      95 calls)
     g_psi        :      0.05s CPU      0.05s WALL (      85 calls)
     cdiaghg      :    280.61s CPU    281.51s WALL (      87 calls)

     Called by h_psi:
     add_vuspsi   :      2.29s CPU      2.32s WALL (      93 calls)

     General routines
     calbec       :      4.89s CPU      4.91s WALL (     188 calls)
     fft          :      0.10s CPU      0.11s WALL (      23 calls)
     ffts         :      0.01s CPU      0.01s WALL (       2 calls)
     fftw         :     45.44s CPU     45.60s WALL (   49640 calls)
     interpolate  :      0.01s CPU      0.01s WALL (       2 calls)
     davcio       :      0.00s CPU      0.03s WALL (      10 calls)
 
     Parallel routines
     fft_scatter  :     38.13s CPU     38.25s WALL (   49665 calls)
 
     PWSCF        :  6m32.39s CPU     6m35.31s WALL

 
   This run was terminated on:   2:23:35  11Sep2018            

=------------------------------------------------------------------------------=
   JOB DONE.
=------------------------------------------------------------------------------=
