
     Program PWSCF v.4.3        starts on  4Sep2018 at 18:35:45 

     This program is part of the open-source Quantum ESPRESSO suite
     for quantum simulation of materials; please cite
         "P. Giannozzi et al., J. Phys.:Condens. Matter 21 395502 (2009);
          URL http://www.quantum-espresso.org", 
     in publications or presentations arising from this work. More details at
     http://www.quantum-espresso.org/wiki/index.php/Citing_Quantum-ESPRESSO

     Parallel version (MPI), running on    32 processors
     R & G space division:  proc/pool =   32

     Current dimensions of program PWSCF are:
     Max number of different atomic species (ntypx) = **
     Max number of k-points (npk) =  40000
     Max angular momentum in pseudopotentials (lmaxx) =  3
     Waiting for input...

     Atomic positions and unit cell read from directory:
     ./benzene.C01-XCH.save/
 

     Subspace diagonalization in iterative solution of the eigenvalue problem:
     parallel, distributed-memory algorithm (size of sub-group:  4*  4 procs)

 
   Stick Mesh
   ----------
   nst = 12187,  nstw =  1523, nsts =  6097
               n.st   n.stw   n.sts    n.g    n.gw   n.gs
   min         380      47     190   21600     953    7620
   max         381      48     191   21605     956    7645
      12187    1523    6097  691275   30529  244257
 


     bravais-lattice index     =           14
     lattice parameter (a_0)   =      27.0483  a.u.
     unit-cell volume          =   14469.9029 (a.u.)^3
     number of atoms/cell      =           12
     number of atomic types    =            3
     number of electrons       =        31.00
     number of Kohn-Sham states=          570
     kinetic-energy cutoff     =      25.0000  Ry
     charge density cutoff     =     200.0000  Ry
     Exchange-correlation      = SLA  PW   PBE  PBE (1434)
     EXX-fraction              =        0.00

     celldm(1)=  27.048255  celldm(2)=   1.046618  celldm(3)=   0.698650
     celldm(4)=   0.000000  celldm(5)=   0.000000  celldm(6)=   0.000000

     crystal axes: (cart. coord. in units of a_0)
               a(1) = (   1.000000   0.000000   0.000000 )  
               a(2) = (   0.000000   1.046618   0.000000 )  
               a(3) = (   0.000000   0.000000   0.698650 )  

     reciprocal axes: (cart. coord. in units 2 pi/a_0)
               b(1) = (  1.000000  0.000000  0.000000 )  
               b(2) = (  0.000000  0.955458  0.000000 )  
               b(3) = (  0.000000  0.000000  1.431332 )  


     PseudoPot. # 1 for C  read from file C.pbe-van-yufengl.UPF
     MD5 check sum: 53b91e9bc0fbd261922308fb0e321ce8
     Pseudo is Ultrasoft, Zval =  4.0
     Generated by new atomic code, or converted to UPF format
     Using radial grid of  745 points,  4 beta functions with: 
                l(1) =   0
                l(2) =   0
                l(3) =   1
                l(4) =   1
     Q(r) pseudized with  8 coefficients,  rinner =    0.800   0.800   0.800


     PseudoPot. # 2 for H  read from file H.pbe-van_bm.UPF
     MD5 check sum: b5ee9d7bfd3a09ee7748110bda690ff7
     Pseudo is Ultrasoft, Zval =  1.0
     Generated by new atomic code, or converted to UPF format
     Using radial grid of  615 points,  1 beta functions with: 
                l(1) =   0
     Q(r) pseudized with  8 coefficients,  rinner =    0.800

     PseudoPot. # 3 for ca read from file C.pbe-van-dgp-1s1.UPF
     MD5 check sum: 7a057fccb4e0c23f2c81e6fc41f767cb
     Pseudo is Ultrasoft, Zval =  5.0
     Generated by new atomic code, or converted to UPF format
     Using radial grid of  721 points,  4 beta functions with: 
                l(1) =   0
                l(2) =   0
                l(3) =   1
                l(4) =   1
     Q(r) pseudized with  8 coefficients,  rinner =    0.800   0.800   0.800


     atomic species   valence    mass     pseudopotential
        C              4.00    12.00000     C ( 1.00)
        H              1.00     1.00790     H ( 1.00)
        CX             5.00    12.00000     ca( 1.00)

      4 Sym.Ops. (no inversion)


   Cartesian axes

     site n.     atom                  positions (a_0 units)
         1           CX  tau(  1) = (   0.0000000   0.0980010   0.0000000  )
         2           H   tau(  2) = (   0.0000000   0.1739841   0.0000000  )
         3           C   tau(  3) = (  -0.0848713   0.0490005   0.0000000  )
         4           H   tau(  4) = (  -0.1506750   0.0869924   0.0000000  )
         5           C   tau(  5) = (  -0.0848713  -0.0490005   0.0000000  )
         6           H   tau(  6) = (  -0.1506750  -0.0869924   0.0000000  )
         7           C   tau(  7) = (   0.0000000  -0.0980010   0.0000000  )
         8           H   tau(  8) = (   0.0000000  -0.1739841   0.0000000  )
         9           C   tau(  9) = (   0.0848713  -0.0490005   0.0000000  )
        10           H   tau( 10) = (   0.1506750  -0.0869924   0.0000000  )
        11           C   tau( 11) = (   0.0848713   0.0490005   0.0000000  )
        12           H   tau( 12) = (   0.1506750   0.0869924   0.0000000  )

     number of k points=     1  Fermi-Dirac smearing, width (Ry)=  0.0019
                       cart. coord. in units 2pi/a_0
        k(    1) = (   0.0000000   0.0000000   0.0000000), wk =   2.0000000

     G cutoff = 3706.3699  ( 691275 G-vectors)     FFT grid: (125,128, 90)
     G cutoff = 1853.1849  ( 244257 G-vectors)  smooth grid: ( 90, 96, 64)

     Largest allocated arrays     est. size (Mb)     dimensions
        Kohn-Sham Wavefunctions         8.31 Mb     (    956, 570)
        NL pseudopotentials             0.79 Mb     (    956,  54)
        Each V/rho on FFT grid          0.73 Mb     (  48000)
        Each G-vector array             0.16 Mb     (  21605)
        G-vector shells                 0.08 Mb     (  10662)
     Largest temporary arrays     est. size (Mb)     dimensions
        Auxiliary wavefunctions        33.26 Mb     (    956,2280)
        Each subspace H/S matrix       79.32 Mb     (   2280,2280)
        Each <psi_i|beta_j> matrix      0.47 Mb     (     54, 570)

     The potential is recalculated from file :
     ./benzene.C01-XCH.save/charge-density.dat


     negative rho (up, down):  0.158E-01 0.000E+00
     Starting wfc are   35 atomic +  535 random wfc

     total cpu time spent up to now is      1.39 secs

     per-process dynamical memory:    72.4 Mb

     Band Structure Calculation
     Davidson diagonalization with overlap

     ethr =  3.23E-11,  avg # of iterations = 22.0

     total cpu time spent up to now is    107.32 secs

     End of band structure calculation

          k = 0.0000 0.0000 0.0000     band energies (ev):

   -22.0814 -18.8935 -18.3001 -15.0902 -15.0245 -13.3894 -11.3207 -11.2341
   -10.5475  -9.9681  -9.4595  -8.2087  -8.0302  -6.6568  -5.9447  -1.7328
    -0.8969  -0.6982  -0.0689   0.1289   0.2021   0.2661   0.6566   0.7396
     0.8627   0.8903   0.9091   1.0653   1.4282   1.5522   1.5880   1.6248
     1.6382   1.6395   1.7102   1.8037   2.0478   2.0944   2.1189   2.2420
     2.2847   2.3618   2.3712   2.3827   2.4478   2.4636   2.4722   2.6022
     2.6058   2.7926   2.8639   2.8746   2.9471   2.9679   3.0235   3.0751
     3.2383   3.5178   3.5799   3.6449   3.7305   3.8085   3.8302   3.8446
     3.8784   3.9167   4.1508   4.2696   4.2760   4.3293   4.3596   4.3733
     4.3826   4.4010   4.4494   4.4862   4.5725   4.6076   4.6435   4.6596
     4.6701   4.6717   4.8472   4.9842   5.0535   5.1075   5.1645   5.2018
     5.3262   5.5108   5.5787   5.6625   5.7692   5.8836   5.8975   5.9056
     5.9469   5.9753   6.0037   6.0118   6.1866   6.2064   6.2394   6.2601
     6.2680   6.4437   6.4516   6.4976   6.5137   6.5609   6.5706   6.5927
     6.6230   6.6413   6.7042   6.7326   6.7399   6.7611   6.7998   6.8028
     6.8171   6.8245   6.8687   6.9612   7.0313   7.1016   7.1701   7.2276
     7.3655   7.4111   7.4205   7.4309   7.4536   7.4806   7.5737   7.6070
     7.6371   7.6771   7.7039   7.7551   7.8128   7.8260   7.8288   7.8832
     7.9083   7.9828   8.0396   8.0708   8.2066   8.2083   8.2172   8.2676
     8.2794   8.2843   8.2942   8.3787   8.3935   8.4940   8.5205   8.5347
     8.5383   8.5908   8.6069   8.6143   8.7309   8.7417   8.7466   8.7889
     8.8698   8.8857   8.9211   8.9461   9.0131   9.0251   9.0566   9.0599
     9.0653   9.1028   9.1233   9.1446   9.2967   9.3962   9.4886   9.4963
     9.6502   9.7779   9.7885   9.8166   9.9125   9.9645   9.9837  10.1151
    10.1695  10.1961  10.2032  10.2125  10.2674  10.2680  10.2982  10.4161
    10.4647  10.4853  10.5117  10.6046  10.6149  10.7497  10.7828  10.8149
    10.8621  10.9331  10.9734  10.9807  10.9918  11.0763  11.1111  11.2339
    11.3344  11.3895  11.5067  11.5469  11.5569  11.5764  11.5882  11.6421
    11.6476  11.6866  11.6938  11.8197  11.8352  11.8622  11.8715  11.9024
    11.9256  11.9990  12.0093  12.0337  12.0496  12.0961  12.1135  12.1504
    12.2377  12.2798  12.2972  12.2990  12.3033  12.3581  12.4004  12.4175
    12.4442  12.4527  12.4612  12.4660  12.4859  12.5860  12.6031  12.6444
    12.6448  12.6506  12.7361  12.7887  12.8183  12.8375  12.8376  12.8652
    12.9191  12.9448  12.9516  12.9944  13.0006  13.0178  13.1078  13.1478
    13.1593  13.1742  13.1950  13.2786  13.2837  13.3150  13.3684  13.3865
    13.3918  13.4040  13.4493  13.5255  13.5994  13.6662  13.6928  13.7214
    13.7417  13.7472  13.7585  13.7803  13.8189  13.8911  13.8937  13.9599
    13.9826  14.0094  14.0709  14.0828  14.1150  14.1533  14.1746  14.1748
    14.2258  14.2485  14.2573  14.2736  14.2979  14.3428  14.4553  14.4855
    14.5085  14.5334  14.5616  14.5662  14.5711  14.6152  14.6292  14.6451
    14.6794  14.7012  14.7103  14.7435  14.8210  14.8246  14.8732  14.8953
    14.9742  15.0106  15.0644  15.1013  15.1588  15.2203  15.2342  15.2385
    15.2434  15.2543  15.2974  15.3104  15.4591  15.4741  15.5833  15.7353
    15.7809  15.7813  15.8601  15.8864  15.9183  15.9746  16.0161  16.0435
    16.1148  16.1160  16.1301  16.1532  16.1889  16.3470  16.3926  16.4246
    16.4419  16.4424  16.4807  16.4929  16.5212  16.5293  16.5394  16.5682
    16.5684  16.5783  16.5971  16.6074  16.6293  16.7341  16.7444  16.7626
    16.7963  16.8099  16.8590  16.8644  16.9136  16.9507  16.9604  17.0107
    17.0730  17.1509  17.1537  17.1769  17.2088  17.2162  17.3370  17.3585
    17.3684  17.4435  17.4601  17.5057  17.5109  17.5148  17.5813  17.5893
    17.6146  17.6376  17.6593  17.7398  17.7783  17.8581  17.8599  17.8868
    17.9187  17.9445  17.9679  17.9963  18.0173  18.0484  18.1623  18.1842
    18.1845  18.1978  18.2099  18.2252  18.2485  18.2863  18.3007  18.3205
    18.3524  18.3612  18.3623  18.3636  18.3841  18.3869  18.3895  18.3995
    18.4071  18.4140  18.4369  18.4631  18.4979  18.5090  18.5182  18.5508
    18.5593  18.5845  18.6521  18.6722  18.6748  18.7273  18.7430  18.7618
    18.8082  18.8246  18.8433  18.8637  18.8748  18.8857  18.8968  18.9022
    18.9336  18.9811  19.0018  19.0487  19.0661  19.0717  19.0867  19.1045
    19.1082  19.2324  19.2511  19.3561  19.3652  19.3700  19.3908  19.4615
    19.4998  19.5279  19.5798  19.5996  19.6036  19.6086  19.6110  19.6249
    19.6351  19.6565  19.7201  19.7825  19.7877  19.8534  19.8743  19.8862
    19.8954  19.9440  19.9910  19.9982  20.0069  20.0395  20.0746  20.1074
    20.1320  20.1387  20.1480  20.1545  20.1886  20.1924  20.2314  20.2941
    20.2983  20.3068  20.3981  20.4167  20.4623  20.5308  20.5336  20.5431
    20.6007  20.6177  20.6718  20.7621  20.8461  20.8624  20.9424  20.9754
    21.2220  21.2315  21.3019  21.3518  21.3538  21.3691  21.4062  21.4301
    21.4727  21.5223  21.5995  21.6255  21.6415  21.7962  21.8334  21.8528
    21.8950  21.9490  21.9977  22.0009  22.0035  22.0173  22.0190  22.0457
    22.0519  22.0652  22.0927  22.1101  22.1173  22.2163  22.2245  22.2614
    22.2827  22.3140  22.3234  22.4135  22.4346  22.4473  22.5516  22.5784
    22.5890  22.5971  22.6280  22.6355  22.6382  22.6544  22.7331  22.8308
    22.8663  22.8722

     the Fermi energy is    -1.7328 ev

     Writing output data file benzene.C01-XCH.save
 
     init_run     :      1.10s CPU      1.24s WALL (       1 calls)
     electrons    :    105.56s CPU    106.01s WALL (       1 calls)

     Called by init_run:
     wfcinit      :      0.00s CPU      0.00s WALL (       1 calls)
     potinit      :      0.15s CPU      0.17s WALL (       1 calls)

     Called by electrons:
     c_bands      :    105.51s CPU    105.94s WALL (       1 calls)
     v_of_rho     :      0.07s CPU      0.08s WALL (       1 calls)
     newd         :      0.10s CPU      0.10s WALL (       1 calls)

     Called by c_bands:
     init_us_2    :      0.00s CPU      0.00s WALL (       1 calls)
     cegterg      :    104.11s CPU    104.49s WALL (       2 calls)

     Called by *egterg:
     h_psi        :     12.90s CPU     12.97s WALL (      25 calls)
     s_psi        :      0.12s CPU      0.12s WALL (      25 calls)
     g_psi        :      0.06s CPU      0.06s WALL (      22 calls)
     cdiaghg      :     78.54s CPU     78.79s WALL (      23 calls)

     Called by h_psi:
     add_vuspsi   :      0.11s CPU      0.12s WALL (      25 calls)

     General routines
     calbec       :      0.15s CPU      0.15s WALL (      25 calls)
     fft          :      0.08s CPU      0.10s WALL (      12 calls)
     ffts         :      0.00s CPU      0.00s WALL (       1 calls)
     fftw         :     12.03s CPU     12.09s WALL (   17848 calls)
     interpolate  :      0.02s CPU      0.02s WALL (       1 calls)
     davcio       :      0.00s CPU      0.04s WALL (       3 calls)
 
     Parallel routines
     fft_scatter  :      4.57s CPU      4.61s WALL (   17861 calls)
 
     PWSCF        :  1m48.82s CPU     1m49.96s WALL

 
   This run was terminated on:  18:37:35   4Sep2018            

=------------------------------------------------------------------------------=
   JOB DONE.
=------------------------------------------------------------------------------=
