
     Program PWSCF v.4.3        starts on  4Sep2018 at 18:35:20 

     This program is part of the open-source Quantum ESPRESSO suite
     for quantum simulation of materials; please cite
         "P. Giannozzi et al., J. Phys.:Condens. Matter 21 395502 (2009);
          URL http://www.quantum-espresso.org", 
     in publications or presentations arising from this work. More details at
     http://www.quantum-espresso.org/wiki/index.php/Citing_Quantum-ESPRESSO

     Parallel version (MPI), running on    32 processors
     R & G space division:  proc/pool =   32

     Current dimensions of program PWSCF are:
     Max number of different atomic species (ntypx) = **
     Max number of k-points (npk) =  40000
     Max angular momentum in pseudopotentials (lmaxx) =  3
     Waiting for input...

     Subspace diagonalization in iterative solution of the eigenvalue problem:
     parallel, distributed-memory algorithm (size of sub-group:  4*  4 procs)

 
   Stick Mesh
   ----------
   nst = 12187,  nstw =  1523, nsts =  6097
               n.st   n.stw   n.sts    n.g    n.gw   n.gs
   min         380      47     190   21600     953    7620
   max         381      48     191   21605     956    7645
      12187    1523    6097  691275   30529  244257
 


     bravais-lattice index     =           14
     lattice parameter (a_0)   =      27.0483  a.u.
     unit-cell volume          =   14469.9029 (a.u.)^3
     number of atoms/cell      =           12
     number of atomic types    =            3
     number of electrons       =        31.00
     number of Kohn-Sham states=           19
     kinetic-energy cutoff     =      25.0000  Ry
     charge density cutoff     =     200.0000  Ry
     convergence threshold     =      1.0E-08
     mixing beta               =       0.3000
     number of iterations used =            8  local-TF  mixing
     Exchange-correlation      = SLA  PW   PBE  PBE (1434)
     EXX-fraction              =        0.00

     celldm(1)=  27.048255  celldm(2)=   1.046618  celldm(3)=   0.698650
     celldm(4)=   0.000000  celldm(5)=   0.000000  celldm(6)=   0.000000

     crystal axes: (cart. coord. in units of a_0)
               a(1) = (   1.000000   0.000000   0.000000 )  
               a(2) = (   0.000000   1.046618   0.000000 )  
               a(3) = (   0.000000   0.000000   0.698650 )  

     reciprocal axes: (cart. coord. in units 2 pi/a_0)
               b(1) = (  1.000000  0.000000  0.000000 )  
               b(2) = (  0.000000  0.955458  0.000000 )  
               b(3) = (  0.000000  0.000000  1.431332 )  


     PseudoPot. # 1 for C  read from file C.pbe-van-yufengl.UPF
     MD5 check sum: 53b91e9bc0fbd261922308fb0e321ce8
     Pseudo is Ultrasoft, Zval =  4.0
     Generated by new atomic code, or converted to UPF format
     Using radial grid of  745 points,  4 beta functions with: 
                l(1) =   0
                l(2) =   0
                l(3) =   1
                l(4) =   1
     Q(r) pseudized with  8 coefficients,  rinner =    0.800   0.800   0.800


     PseudoPot. # 2 for H  read from file H.pbe-van_bm.UPF
     MD5 check sum: b5ee9d7bfd3a09ee7748110bda690ff7
     Pseudo is Ultrasoft, Zval =  1.0
     Generated by new atomic code, or converted to UPF format
     Using radial grid of  615 points,  1 beta functions with: 
                l(1) =   0
     Q(r) pseudized with  8 coefficients,  rinner =    0.800

     PseudoPot. # 3 for ca read from file C.pbe-van-dgp-1s1.UPF
     MD5 check sum: 7a057fccb4e0c23f2c81e6fc41f767cb
     Pseudo is Ultrasoft, Zval =  5.0
     Generated by new atomic code, or converted to UPF format
     Using radial grid of  721 points,  4 beta functions with: 
                l(1) =   0
                l(2) =   0
                l(3) =   1
                l(4) =   1
     Q(r) pseudized with  8 coefficients,  rinner =    0.800   0.800   0.800


     atomic species   valence    mass     pseudopotential
        C              4.00    12.00000     C ( 1.00)
        H              1.00     1.00790     H ( 1.00)
        CX             5.00    12.00000     ca( 1.00)

      4 Sym.Ops. (no inversion)


   Cartesian axes

     site n.     atom                  positions (a_0 units)
         1           CX  tau(  1) = (   0.0000000   0.0980010   0.0000000  )
         2           H   tau(  2) = (   0.0000000   0.1739841   0.0000000  )
         3           C   tau(  3) = (  -0.0848713   0.0490005   0.0000000  )
         4           H   tau(  4) = (  -0.1506750   0.0869924   0.0000000  )
         5           C   tau(  5) = (  -0.0848713  -0.0490005   0.0000000  )
         6           H   tau(  6) = (  -0.1506750  -0.0869924   0.0000000  )
         7           C   tau(  7) = (   0.0000000  -0.0980010   0.0000000  )
         8           H   tau(  8) = (   0.0000000  -0.1739841   0.0000000  )
         9           C   tau(  9) = (   0.0848713  -0.0490005   0.0000000  )
        10           H   tau( 10) = (   0.1506750  -0.0869924   0.0000000  )
        11           C   tau( 11) = (   0.0848713   0.0490005   0.0000000  )
        12           H   tau( 12) = (   0.1506750   0.0869924   0.0000000  )

     number of k points=     1  Fermi-Dirac smearing, width (Ry)=  0.0019
                       cart. coord. in units 2pi/a_0
        k(    1) = (   0.0000000   0.0000000   0.0000000), wk =   2.0000000

     G cutoff = 3706.3699  ( 691275 G-vectors)     FFT grid: (125,128, 90)
     G cutoff = 1853.1849  ( 244257 G-vectors)  smooth grid: ( 90, 96, 64)

     Largest allocated arrays     est. size (Mb)     dimensions
        Kohn-Sham Wavefunctions         0.28 Mb     (    956,  19)
        NL pseudopotentials             0.79 Mb     (    956,  54)
        Each V/rho on FFT grid          0.73 Mb     (  48000)
        Each G-vector array             0.16 Mb     (  21605)
        G-vector shells                 0.08 Mb     (  10662)
     Largest temporary arrays     est. size (Mb)     dimensions
        Auxiliary wavefunctions         1.11 Mb     (    956,  76)
        Each subspace H/S matrix        0.09 Mb     (     76,  76)
        Each <psi_i|beta_j> matrix      0.02 Mb     (     54,  19)
        Arrays for rho mixing           5.86 Mb     (  48000,   8)

     Initial potential from superposition of free atoms
     Check: negative starting charge=   -0.007093

     starting charge   29.99974, renormalised to   31.00000

     negative rho (up, down):  0.733E-02 0.000E+00
     Starting wfc are   35 atomic wfcs

     total cpu time spent up to now is      1.66 secs

     per-process dynamical memory:    66.4 Mb

     Self-consistent Calculation

     iteration #  1     ecut=    25.00 Ry     beta=0.30
     Davidson diagonalization with overlap
     ethr =  1.00E-02,  avg # of iterations =  2.0

     negative rho (up, down):  0.281E-04 0.000E+00

     total cpu time spent up to now is      3.08 secs

     total energy              =     -83.72456240 Ry
     Harris-Foulkes estimate   =     -84.07641521 Ry
     estimated scf accuracy    <       2.60422220 Ry

     iteration #  2     ecut=    25.00 Ry     beta=0.30
     Davidson diagonalization with overlap
     ethr =  8.40E-03,  avg # of iterations =  1.0

     negative rho (up, down):  0.692E-04 0.000E+00

     total cpu time spent up to now is      4.02 secs

     total energy              =     -83.13148591 Ry
     Harris-Foulkes estimate   =     -83.75569276 Ry
     estimated scf accuracy    <       1.54695844 Ry

     iteration #  3     ecut=    25.00 Ry     beta=0.30
     Davidson diagonalization with overlap
     ethr =  4.99E-03,  avg # of iterations =  2.0

     negative rho (up, down):  0.807E-04 0.000E+00

     total cpu time spent up to now is      4.74 secs

     total energy              =     -83.28870617 Ry
     Harris-Foulkes estimate   =     -83.34957411 Ry
     estimated scf accuracy    <       0.22084734 Ry

     iteration #  4     ecut=    25.00 Ry     beta=0.30
     Davidson diagonalization with overlap
     ethr =  7.12E-04,  avg # of iterations =  2.0

     negative rho (up, down):  0.487E-02 0.000E+00

     total cpu time spent up to now is      5.43 secs

     total energy              =     -83.26219080 Ry
     Harris-Foulkes estimate   =     -83.31272555 Ry
     estimated scf accuracy    <       0.13256249 Ry

     iteration #  5     ecut=    25.00 Ry     beta=0.30
     Davidson diagonalization with overlap
     ethr =  4.28E-04,  avg # of iterations =  9.0

     negative rho (up, down):  0.346E-02 0.000E+00

     total cpu time spent up to now is      6.26 secs

     total energy              =     -83.26759770 Ry
     Harris-Foulkes estimate   =     -83.27358685 Ry
     estimated scf accuracy    <       0.04390252 Ry

     iteration #  6     ecut=    25.00 Ry     beta=0.30
     Davidson diagonalization with overlap
     ethr =  1.42E-04,  avg # of iterations =  1.0

     negative rho (up, down):  0.520E-01 0.000E+00

     total cpu time spent up to now is      7.23 secs

     total energy              =     -83.25905713 Ry
     Harris-Foulkes estimate   =     -83.26927075 Ry
     estimated scf accuracy    <       0.02434461 Ry

     iteration #  7     ecut=    25.00 Ry     beta=0.30
     Davidson diagonalization with overlap
     ethr =  7.85E-05,  avg # of iterations =  5.0

     negative rho (up, down):  0.371E-01 0.000E+00

     total cpu time spent up to now is      8.32 secs

     total energy              =     -83.25908916 Ry
     Harris-Foulkes estimate   =     -83.26096574 Ry
     estimated scf accuracy    <       0.01174000 Ry

     iteration #  8     ecut=    25.00 Ry     beta=0.30
     Davidson diagonalization with overlap
     ethr =  3.79E-05,  avg # of iterations =  1.0

     negative rho (up, down):  0.694E-01 0.000E+00

     total cpu time spent up to now is      9.25 secs

     total energy              =     -83.25943849 Ry
     Harris-Foulkes estimate   =     -83.25942213 Ry
     estimated scf accuracy    <       0.00727144 Ry

     iteration #  9     ecut=    25.00 Ry     beta=0.30
     Davidson diagonalization with overlap
     ethr =  2.35E-05,  avg # of iterations =  7.0

     negative rho (up, down):  0.428E-01 0.000E+00

     total cpu time spent up to now is     10.41 secs

     total energy              =     -83.25881913 Ry
     Harris-Foulkes estimate   =     -83.26040437 Ry
     estimated scf accuracy    <       0.00332232 Ry

     iteration # 10     ecut=    25.00 Ry     beta=0.30
     Davidson diagonalization with overlap
     ethr =  1.07E-05,  avg # of iterations =  6.0

     negative rho (up, down):  0.355E-01 0.000E+00

     total cpu time spent up to now is     11.49 secs

     total energy              =     -83.25935717 Ry
     Harris-Foulkes estimate   =     -83.25942367 Ry
     estimated scf accuracy    <       0.00118041 Ry

     iteration # 11     ecut=    25.00 Ry     beta=0.30
     Davidson diagonalization with overlap
     ethr =  3.81E-06,  avg # of iterations =  7.0

     negative rho (up, down):  0.216E-01 0.000E+00

     total cpu time spent up to now is     12.49 secs

     total energy              =     -83.25934384 Ry
     Harris-Foulkes estimate   =     -83.25942002 Ry
     estimated scf accuracy    <       0.00039660 Ry

     iteration # 12     ecut=    25.00 Ry     beta=0.30
     Davidson diagonalization with overlap
     ethr =  1.28E-06,  avg # of iterations =  9.0

     negative rho (up, down):  0.179E-01 0.000E+00

     total cpu time spent up to now is     13.57 secs

     total energy              =     -83.25935371 Ry
     Harris-Foulkes estimate   =     -83.25935831 Ry
     estimated scf accuracy    <       0.00011029 Ry

     iteration # 13     ecut=    25.00 Ry     beta=0.30
     Davidson diagonalization with overlap
     ethr =  3.56E-07,  avg # of iterations =  7.0

     negative rho (up, down):  0.160E-01 0.000E+00

     total cpu time spent up to now is     14.71 secs

     total energy              =     -83.25936123 Ry
     Harris-Foulkes estimate   =     -83.25936865 Ry
     estimated scf accuracy    <       0.00001577 Ry

     iteration # 14     ecut=    25.00 Ry     beta=0.30
     Davidson diagonalization with overlap
     ethr =  5.09E-08,  avg # of iterations =  1.0

     negative rho (up, down):  0.155E-01 0.000E+00

     total cpu time spent up to now is     15.78 secs

     total energy              =     -83.25935849 Ry
     Harris-Foulkes estimate   =     -83.25936186 Ry
     estimated scf accuracy    <       0.00000697 Ry

     iteration # 15     ecut=    25.00 Ry     beta=0.30
     Davidson diagonalization with overlap
     ethr =  2.25E-08,  avg # of iterations =  3.0

     negative rho (up, down):  0.155E-01 0.000E+00

     total cpu time spent up to now is     16.71 secs

     total energy              =     -83.25935936 Ry
     Harris-Foulkes estimate   =     -83.25935913 Ry
     estimated scf accuracy    <       0.00000079 Ry

     iteration # 16     ecut=    25.00 Ry     beta=0.30
     Davidson diagonalization with overlap
     ethr =  2.55E-09,  avg # of iterations =  2.0

     negative rho (up, down):  0.157E-01 0.000E+00

     total cpu time spent up to now is     17.75 secs

     total energy              =     -83.25935911 Ry
     Harris-Foulkes estimate   =     -83.25935943 Ry
     estimated scf accuracy    <       0.00000046 Ry

     iteration # 17     ecut=    25.00 Ry     beta=0.30
     Davidson diagonalization with overlap
     ethr =  1.49E-09,  avg # of iterations =  3.0

     negative rho (up, down):  0.157E-01 0.000E+00

     total cpu time spent up to now is     18.79 secs

     total energy              =     -83.25935917 Ry
     Harris-Foulkes estimate   =     -83.25935920 Ry
     estimated scf accuracy    <       0.00000016 Ry

     iteration # 18     ecut=    25.00 Ry     beta=0.30
     Davidson diagonalization with overlap
     ethr =  5.25E-10,  avg # of iterations =  2.0

     negative rho (up, down):  0.157E-01 0.000E+00

     total cpu time spent up to now is     19.86 secs

     total energy              =     -83.25935922 Ry
     Harris-Foulkes estimate   =     -83.25935919 Ry
     estimated scf accuracy    <       0.00000003 Ry

     iteration # 19     ecut=    25.00 Ry     beta=0.30
     Davidson diagonalization with overlap
     ethr =  1.10E-10,  avg # of iterations =  3.0

     negative rho (up, down):  0.157E-01 0.000E+00

     total cpu time spent up to now is     21.04 secs

     total energy              =     -83.25935922 Ry
     Harris-Foulkes estimate   =     -83.25935923 Ry
     estimated scf accuracy    <       0.00000002 Ry

     iteration # 20     ecut=    25.00 Ry     beta=0.30
     Davidson diagonalization with overlap
     ethr =  5.31E-11,  avg # of iterations =  1.0

     negative rho (up, down):  0.158E-01 0.000E+00

     total cpu time spent up to now is     21.36 secs

     End of self-consistent calculation

          k = 0.0000 0.0000 0.0000 ( 30529 PWs)   bands (ev):

   -22.0818 -18.8941 -18.3007 -15.0907 -15.0250 -13.3898 -11.3212 -11.2346
   -10.5480  -9.9687  -9.4598  -8.2092  -8.0307  -6.6573  -5.9453  -1.7332
    -0.8974  -0.6983  -0.0689

     the Fermi energy is    -1.7332 ev

!    total energy              =     -83.25935914 Ry
     Harris-Foulkes estimate   =     -83.25935922 Ry
     estimated scf accuracy    <          9.6E-09 Ry

     The total energy is the sum of the following terms:

     one-electron contribution =    -348.55517098 Ry
     hartree contribution      =     177.88584184 Ry
     xc contribution           =     -26.49140211 Ry
     ewald contribution        =     113.90400606 Ry
     smearing contrib. (-TS)   =      -0.00263396 Ry

     convergence has been achieved in  20 iterations
 forces --- starting time for forces:
     forces       :      0.00s CPU      0.00s WALL (       1 calls)

     Forces acting on atoms (Ry/au):

 forces --- nonlocal contribution:
     forces       :      0.08s CPU      0.09s WALL (       2 calls)
 forces --- local contribution:
     forces       :      0.09s CPU      0.10s WALL (       3 calls)
 forces --- NLCC contribution:
     forces       :      0.09s CPU      0.10s WALL (       4 calls)
 forces --- Hubbard contribution:
     forces       :      0.09s CPU      0.10s WALL (       5 calls)
 forces --- ionic contribution:
     forces       :      0.10s CPU      0.10s WALL (       6 calls)
 forces --- SCF contribution:
     forces       :      0.32s CPU      0.33s WALL (       7 calls)
     atom   1 type  3   force =     0.00000000    0.09932795    0.00000000
     atom   2 type  2   force =     0.00000000   -0.08962025    0.00000000
     atom   3 type  1   force =    -0.02474425   -0.06253657    0.00000000
     atom   4 type  2   force =     0.00376636    0.01100742    0.00000000
     atom   5 type  1   force =     0.00031221    0.06500271    0.00000000
     atom   6 type  2   force =    -0.00808995    0.00328543    0.00000000
     atom   7 type  1   force =     0.00000000   -0.03744145    0.00000000
     atom   8 type  2   force =     0.00000000   -0.00578424    0.00000000
     atom   9 type  1   force =    -0.00031221    0.06500271    0.00000000
     atom  10 type  2   force =     0.00808995    0.00328543    0.00000000
     atom  11 type  1   force =     0.02474425   -0.06253657    0.00000000
     atom  12 type  2   force =    -0.00376636    0.01100742    0.00000000

     Total force =     0.193011     Total SCF correction =     0.000059


     entering subroutine stress ...

          total   stress  (Ry/bohr**3)                   (kbar)     P=   -3.19
  -0.00000611   0.00000000   0.00000000         -0.90      0.00      0.00
   0.00000000  -0.00004006   0.00000000          0.00     -5.89      0.00
   0.00000000   0.00000000  -0.00001879          0.00      0.00     -2.76


     Writing output data file benzene.C01-XCH.save
 
     init_run     :      1.38s CPU      1.54s WALL (       1 calls)
     electrons    :     18.76s CPU     19.69s WALL (       1 calls)
     forces       :      0.32s CPU      0.33s WALL (       8 calls)
     stress       :      0.69s CPU      0.69s WALL (       1 calls)

     Called by init_run:
     wfcinit      :      0.07s CPU      0.07s WALL (       1 calls)
     potinit      :      0.36s CPU      0.39s WALL (       1 calls)

     Called by electrons:
     c_bands      :      2.11s CPU      2.30s WALL (      20 calls)
     sum_band     :      1.79s CPU      1.82s WALL (      20 calls)
     v_of_rho     :      1.10s CPU      1.15s WALL (      21 calls)
     newd         :      2.12s CPU      2.13s WALL (      21 calls)
     mix_rho      :     10.23s CPU     10.26s WALL (      20 calls)

     Called by c_bands:
     init_us_2    :      0.02s CPU      0.02s WALL (      41 calls)
     cegterg      :      2.06s CPU      2.25s WALL (      20 calls)

     Called by *egterg:
     h_psi        :      1.51s CPU      1.53s WALL (      95 calls)
     s_psi        :      0.02s CPU      0.02s WALL (      95 calls)
     g_psi        :      0.00s CPU      0.00s WALL (      74 calls)
     cdiaghg      :      0.43s CPU      0.60s WALL (      94 calls)

     Called by h_psi:
     add_vuspsi   :      0.02s CPU      0.02s WALL (      95 calls)

     General routines
     calbec       :      0.05s CPU      0.05s WALL (     117 calls)
     fft          :      1.52s CPU      1.62s WALL (     340 calls)
     ffts         :      7.23s CPU      7.26s WALL (    6936 calls)
     fftw         :      1.69s CPU      1.70s WALL (    2278 calls)
     interpolate  :      0.25s CPU      0.27s WALL (      41 calls)
     davcio       :      0.00s CPU      0.01s WALL (      21 calls)
 
     Parallel routines
     fft_scatter  :      5.25s CPU      5.36s WALL (    9554 calls)
 
     PWSCF        :    21.56s CPU        23.00s WALL

 
   This run was terminated on:  18:35:43   4Sep2018            

=------------------------------------------------------------------------------=
   JOB DONE.
=------------------------------------------------------------------------------=
