
     Program PWSCF v.4.3        starts on  6Sep2018 at 16: 6:31 

     This program is part of the open-source Quantum ESPRESSO suite
     for quantum simulation of materials; please cite
         "P. Giannozzi et al., J. Phys.:Condens. Matter 21 395502 (2009);
          URL http://www.quantum-espresso.org", 
     in publications or presentations arising from this work. More details at
     http://www.quantum-espresso.org/wiki/index.php/Citing_Quantum-ESPRESSO

     Parallel version (MPI), running on    64 processors
     R & G space division:  proc/pool =   64

     Current dimensions of program PWSCF are:
     Max number of different atomic species (ntypx) = **
     Max number of k-points (npk) =  40000
     Max angular momentum in pseudopotentials (lmaxx) =  3
     Waiting for input...

     Subspace diagonalization in iterative solution of the eigenvalue problem:
     parallel, distributed-memory algorithm (size of sub-group:  5*  5 procs)

 
   Stick Mesh
   ----------
   nst = 10457,  nstw =  1155, nsts =  4177
               n.st   n.stw   n.sts    n.g    n.gw   n.gs
   min         163      18      65    9923     362    2501
   max         164      19      66    9926     366    2528
      10457    1155    4177  635163   23329  160693
 


     bravais-lattice index     =           14
     lattice parameter (a_0)   =      21.7375  a.u.
     unit-cell volume          =    7238.1051 (a.u.)^3
     number of atoms/cell      =           84
     number of atomic types    =            3
     number of electrons       =       672.00
     number of Kohn-Sham states=          403
     kinetic-energy cutoff     =      30.0000  Ry
     charge density cutoff     =     300.0000  Ry
     convergence threshold     =      1.0E-08
     mixing beta               =       0.3000
     number of iterations used =            8  local-TF  mixing
     Exchange-correlation      = SLA  PW   PBE  PBE (1434)
     EXX-fraction              =        0.00

     celldm(1)=  21.737520  celldm(2)=   0.927671  celldm(3)=   0.759628
     celldm(4)=   0.000000  celldm(5)=   0.000000  celldm(6)=   0.000000

     crystal axes: (cart. coord. in units of a_0)
               a(1) = (   1.000000   0.000000   0.000000 )  
               a(2) = (   0.000000   0.927671   0.000000 )  
               a(3) = (   0.000000   0.000000   0.759628 )  

     reciprocal axes: (cart. coord. in units 2 pi/a_0)
               b(1) = (  1.000000  0.000000  0.000000 )  
               b(2) = (  0.000000  1.077968  0.000000 )  
               b(3) = (  0.000000  0.000000  1.316434 )  


     PseudoPot. # 1 for O  read from file O.pbe-van_bm.UPF
     MD5 check sum: ca2828d9fb1f294809e918903b7648d1
     Pseudo is Ultrasoft, Zval =  6.0
     Generated by new atomic code, or converted to UPF format
     Using radial grid of  737 points,  4 beta functions with: 
                l(1) =   0
                l(2) =   0
                l(3) =   1
                l(4) =   1
     Q(r) pseudized with  8 coefficients,  rinner =    0.800   0.800   0.800


     PseudoPot. # 2 for V  read from file V.pbe-van-yufengl.UPF
     MD5 check sum: 105a573f738f0b837c178d5a4207921b
     Pseudo is Ultrasoft + core correction, Zval = 13.0
     Generated by new atomic code, or converted to UPF format
     Using radial grid of  853 points,  6 beta functions with: 
                l(1) =   0
                l(2) =   0
                l(3) =   1
                l(4) =   1
                l(5) =   2
                l(6) =   2
     Q(r) pseudized with  6 coefficients,  rinner =    1.000   1.000   1.000
                                                       1.000   1.000

     PseudoPot. # 3 for ox read from file O.pbe-van-dgp-1s1.UPF
     MD5 check sum: 2083901d62884ac3a15d661bda1575b3
     Pseudo is Ultrasoft, Zval =  7.0
     Generated by new atomic code, or converted to UPF format
     Using radial grid of  737 points,  4 beta functions with: 
                l(1) =   0
                l(2) =   0
                l(3) =   1
                l(4) =   1
     Q(r) pseudized with  8 coefficients,  rinner =    0.800   0.800   0.800


     atomic species   valence    mass     pseudopotential
        O              6.00    15.99900     O ( 1.00)
        V             13.00    50.94000     V ( 1.00)
        OX             7.00    15.99900     ox( 1.00)

     Starting magnetic structure 
     atomic species   magnetization
        O            0.000
        V            0.010
        OX           0.000

     LDA+U calculation, Hubbard_lmax = 2
     atomic species  L   Hubbard U  Hubbard alpha
        V            2    0.227846    0.000000

      2 Sym.Ops. (no inversion)


   Cartesian axes

     site n.     atom                  positions (a_0 units)
         1           V   tau(  1) = (   0.1483269   0.0000000   0.3388149  )
         2           V   tau(  2) = (   0.1483269   0.0000000   0.7186289  )
         3           V   tau(  3) = (   0.1483269   0.3092237   0.3388149  )
         4           V   tau(  4) = (   0.1483269   0.3092237   0.7186289  )
         5           V   tau(  5) = (   0.1483269   0.6184474   0.3388149  )
         6           V   tau(  6) = (   0.1483269   0.6184474   0.7186289  )
         7           V   tau(  7) = (   0.3516731   0.1546118   0.0409986  )
         8           V   tau(  8) = (   0.3516731   0.1546118   0.4208125  )
         9           V   tau(  9) = (   0.3516731   0.4638355   0.0409986  )
        10           V   tau( 10) = (   0.3516731   0.4638355   0.4208125  )
        11           V   tau( 11) = (   0.3516731   0.7730592   0.0409986  )
        12           V   tau( 12) = (   0.3516731   0.7730592   0.4208125  )
        13           V   tau( 13) = (   0.6483270   0.1546118   0.0409980  )
        14           V   tau( 14) = (   0.6483270   0.1546118   0.4208119  )
        15           V   tau( 15) = (   0.6483270   0.4638355   0.0409980  )
        16           V   tau( 16) = (   0.6483270   0.4638355   0.4208119  )
        17           V   tau( 17) = (   0.6483270   0.7730592   0.0409980  )
        18           V   tau( 18) = (   0.6483270   0.7730592   0.4208119  )
        19           V   tau( 19) = (   0.8516731   0.0000000   0.3388154  )
        20           V   tau( 20) = (   0.8516731   0.0000000   0.7186293  )
        21           V   tau( 21) = (   0.8516731   0.3092237   0.3388154  )
        22           V   tau( 22) = (   0.8516731   0.3092237   0.7186293  )
        23           V   tau( 23) = (   0.8516731   0.6184474   0.3388154  )
        24           V   tau( 24) = (   0.8516731   0.6184474   0.7186293  )
        25           O   tau( 25) = (   0.1813361   0.1546118   0.3796345  )
        26           O   tau( 26) = (   0.1813361   0.1546118   0.7594484  )
        27           O   tau( 27) = (   0.1813361   0.4638355   0.3796345  )
        28           O   tau( 28) = (   0.1813361   0.4638355   0.7594484  )
        29           O   tau( 29) = (   0.1813361   0.7730592   0.3796345  )
        30           O   tau( 30) = (   0.1813361   0.7730592   0.7594484  )
        31           O   tau( 31) = (   0.3186639   0.0000000   0.0001795  )
        32           O   tau( 32) = (   0.3186639   0.0000000   0.3799935  )
        33           O   tau( 33) = (   0.3186639   0.3092237   0.0001795  )
        34           O   tau( 34) = (   0.3186639   0.3092237   0.3799935  )
        35           O   tau( 35) = (   0.3186639   0.6184474   0.0001795  )
        36           O   tau( 36) = (   0.3186639   0.6184474   0.3799935  )
        37           O   tau( 37) = (   0.6813362   0.0000000   0.0001795  )
        38           O   tau( 38) = (   0.6813362   0.0000000   0.3799935  )
        39           O   tau( 39) = (   0.6813362   0.3092237   0.0001795  )
        40           O   tau( 40) = (   0.6813362   0.3092237   0.3799935  )
        41           O   tau( 41) = (   0.6813362   0.6184474   0.0001795  )
        42           O   tau( 42) = (   0.6813362   0.6184474   0.3799935  )
        43           O   tau( 43) = (   0.8186639   0.1546118   0.3796345  )
        44           O   tau( 44) = (   0.8186639   0.1546118   0.7594485  )
        45           O   tau( 45) = (   0.8186639   0.4638355   0.3796345  )
        46           O   tau( 46) = (   0.8186639   0.4638355   0.7594485  )
        47           O   tau( 47) = (   0.8186639   0.7730592   0.3796345  )
        48           O   tau( 48) = (   0.8186639   0.7730592   0.7594485  )
        49           O   tau( 49) = (   0.8552736   0.0000000   0.2004983  )
        50           O   tau( 50) = (   0.8552736   0.0000000   0.5803123  )
        51           O   tau( 51) = (   0.8552736   0.3092237   0.2004983  )
        52           O   tau( 52) = (   0.8552736   0.3092237   0.5803123  )
        53           O   tau( 53) = (   0.8552736   0.6184474   0.2004983  )
        54           O   tau( 54) = (   0.8552736   0.6184474   0.5803123  )
        55           OX  tau( 55) = (   0.6447264   0.1546118   0.1793162  )
        56           O   tau( 56) = (   0.6447264   0.1546118   0.5591301  )
        57           O   tau( 57) = (   0.6447264   0.4638355   0.1793162  )
        58           O   tau( 58) = (   0.6447264   0.4638355   0.5591301  )
        59           O   tau( 59) = (   0.6447264   0.7730592   0.1793162  )
        60           O   tau( 60) = (   0.6447264   0.7730592   0.5591301  )
        61           O   tau( 61) = (   0.3552736   0.1546118   0.1793157  )
        62           O   tau( 62) = (   0.3552736   0.1546118   0.5591297  )
        63           O   tau( 63) = (   0.3552736   0.4638355   0.1793157  )
        64           O   tau( 64) = (   0.3552736   0.4638355   0.5591297  )
        65           O   tau( 65) = (   0.3552736   0.7730592   0.1793157  )
        66           O   tau( 66) = (   0.3552736   0.7730592   0.5591297  )
        67           O   tau( 67) = (   0.5000000   0.1546118   0.3788864  )
        68           O   tau( 68) = (   0.5000000   0.1546118   0.7587004  )
        69           O   tau( 69) = (   0.5000000   0.4638355   0.3788864  )
        70           O   tau( 70) = (   0.5000000   0.4638355   0.7587004  )
        71           O   tau( 71) = (   0.5000000   0.7730592   0.3788864  )
        72           O   tau( 72) = (   0.5000000   0.7730592   0.7587004  )
        73           O   tau( 73) = (  -0.0000000   0.0000000   0.0009276  )
        74           O   tau( 74) = (  -0.0000000   0.0000000   0.3807415  )
        75           O   tau( 75) = (  -0.0000000   0.3092237   0.0009276  )
        76           O   tau( 76) = (  -0.0000000   0.3092237   0.3807415  )
        77           O   tau( 77) = (  -0.0000000   0.6184474   0.0009276  )
        78           O   tau( 78) = (  -0.0000000   0.6184474   0.3807415  )
        79           O   tau( 79) = (   0.1447264   0.0000000   0.2004987  )
        80           O   tau( 80) = (   0.1447264   0.0000000   0.5803126  )
        81           O   tau( 81) = (   0.1447264   0.3092237   0.2004987  )
        82           O   tau( 82) = (   0.1447264   0.3092237   0.5803126  )
        83           O   tau( 83) = (   0.1447264   0.6184474   0.2004987  )
        84           O   tau( 84) = (   0.1447264   0.6184474   0.5803126  )

     number of k points=    16  Fermi-Dirac smearing, width (Ry)=  0.0019
                       cart. coord. in units 2pi/a_0
        k(    1) = (   0.0000000   0.0000000   0.0000000), wk =   0.1250000
        k(    2) = (   0.0000000   0.0000000  -0.6582170), wk =   0.1250000
        k(    3) = (   0.0000000  -0.5389842   0.0000000), wk =   0.1250000
        k(    4) = (   0.0000000  -0.5389842  -0.6582170), wk =   0.1250000
        k(    5) = (  -0.5000000   0.0000000   0.0000000), wk =   0.1250000
        k(    6) = (  -0.5000000   0.0000000  -0.6582170), wk =   0.1250000
        k(    7) = (  -0.5000000  -0.5389842   0.0000000), wk =   0.1250000
        k(    8) = (  -0.5000000  -0.5389842  -0.6582170), wk =   0.1250000
        k(    9) = (   0.0000000   0.0000000   0.0000000), wk =   0.1250000
        k(   10) = (   0.0000000   0.0000000  -0.6582170), wk =   0.1250000
        k(   11) = (   0.0000000  -0.5389842   0.0000000), wk =   0.1250000
        k(   12) = (   0.0000000  -0.5389842  -0.6582170), wk =   0.1250000
        k(   13) = (  -0.5000000   0.0000000   0.0000000), wk =   0.1250000
        k(   14) = (  -0.5000000   0.0000000  -0.6582170), wk =   0.1250000
        k(   15) = (  -0.5000000  -0.5389842   0.0000000), wk =   0.1250000
        k(   16) = (  -0.5000000  -0.5389842  -0.6582170), wk =   0.1250000

     G cutoff = 3590.7196  ( 635163 G-vectors)     FFT grid: (120,120, 96)
     G cutoff = 1436.2879  ( 160693 G-vectors)  smooth grid: ( 75, 72, 60)

     Largest allocated arrays     est. size (Mb)     dimensions
        Kohn-Sham Wavefunctions         1.97 Mb     (    321, 403)
        Atomic wavefunctions            2.35 Mb     (    321, 480)
        NL pseudopotentials             4.47 Mb     (    321, 912)
        Each V/rho on FFT grid          0.88 Mb     (  28800,   2)
        Each G-vector array             0.08 Mb     (   9926)
        G-vector shells                 0.04 Mb     (   4974)
     Largest temporary arrays     est. size (Mb)     dimensions
        Auxiliary wavefunctions         7.90 Mb     (    321,1612)
        Each subspace H/S matrix       39.65 Mb     (   1612,1612)
        Each <psi_i|beta_j> matrix      5.61 Mb     (    912, 403)
        Arrays for rho mixing           3.52 Mb     (  28800,   8)

     Check: negative/imaginary core charge=   -0.000004    0.000000

     Initial potential from superposition of free atoms
     Check: negative starting charge=(component1):   -0.005916
     Check: negative starting charge=(component2):   -0.005794

     starting charge  671.97045, renormalised to  672.00000

     negative rho (up, down):  0.592E-02 0.579E-02

     Parameters of the lda+U calculation:
     Number of iteration with fixed ns =  0
     Starting ns and Hubbard U :
 enter write_ns
U( 1) =  0.0000      U( 2) =  3.1000      U( 3) =  0.0000
alpha( 1) =  0.0000      alpha( 2) =  0.0000      alpha( 3) =  0.0000
atom    1   Tr[ns(na)]=   3.0000000
atom    1   spin  1
eigenvalues:  0.6000000 0.6000000 0.6000000 0.6000000 0.6000000
 eigenvectors
 1   1.0000000  0.0000000  0.0000000  0.0000000  0.0000000
 2   0.0000000  1.0000000  0.0000000  0.0000000  0.0000000
 3   0.0000000  0.0000000  1.0000000  0.0000000  0.0000000
 4   0.0000000  0.0000000  0.0000000  1.0000000  0.0000000
 5   0.0000000  0.0000000  0.0000000  0.0000000  1.0000000
 occupations
 0.600  0.000  0.000  0.000  0.000
 0.000  0.600  0.000  0.000  0.000
 0.000  0.000  0.600  0.000  0.000
 0.000  0.000  0.000  0.600  0.000
 0.000  0.000  0.000  0.000  0.600
atom    1   spin  2
eigenvalues:  0.0000000 0.0000000 0.0000000 0.0000000 0.0000000
 eigenvectors
 1   1.0000000  0.0000000  0.0000000  0.0000000  0.0000000
 2   0.0000000  1.0000000  0.0000000  0.0000000  0.0000000
 3   0.0000000  0.0000000  1.0000000  0.0000000  0.0000000
 4   0.0000000  0.0000000  0.0000000  1.0000000  0.0000000
 5   0.0000000  0.0000000  0.0000000  0.0000000  1.0000000
 occupations
 0.000  0.000  0.000  0.000  0.000
 0.000  0.000  0.000  0.000  0.000
 0.000  0.000  0.000  0.000  0.000
 0.000  0.000  0.000  0.000  0.000
 0.000  0.000  0.000  0.000  0.000
atom    2   Tr[ns(na)]=   3.0000000
atom    2   spin  1
eigenvalues:  0.6000000 0.6000000 0.6000000 0.6000000 0.6000000
 eigenvectors
 1   1.0000000  0.0000000  0.0000000  0.0000000  0.0000000
 2   0.0000000  1.0000000  0.0000000  0.0000000  0.0000000
 3   0.0000000  0.0000000  1.0000000  0.0000000  0.0000000
 4   0.0000000  0.0000000  0.0000000  1.0000000  0.0000000
 5   0.0000000  0.0000000  0.0000000  0.0000000  1.0000000
 occupations
 0.600  0.000  0.000  0.000  0.000
 0.000  0.600  0.000  0.000  0.000
 0.000  0.000  0.600  0.000  0.000
 0.000  0.000  0.000  0.600  0.000
 0.000  0.000  0.000  0.000  0.600
atom    2   spin  2
eigenvalues:  0.0000000 0.0000000 0.0000000 0.0000000 0.0000000
 eigenvectors
 1   1.0000000  0.0000000  0.0000000  0.0000000  0.0000000
 2   0.0000000  1.0000000  0.0000000  0.0000000  0.0000000
 3   0.0000000  0.0000000  1.0000000  0.0000000  0.0000000
 4   0.0000000  0.0000000  0.0000000  1.0000000  0.0000000
 5   0.0000000  0.0000000  0.0000000  0.0000000  1.0000000
 occupations
 0.000  0.000  0.000  0.000  0.000
 0.000  0.000  0.000  0.000  0.000
 0.000  0.000  0.000  0.000  0.000
 0.000  0.000  0.000  0.000  0.000
 0.000  0.000  0.000  0.000  0.000
atom    3   Tr[ns(na)]=   3.0000000
atom    3   spin  1
eigenvalues:  0.6000000 0.6000000 0.6000000 0.6000000 0.6000000
 eigenvectors
 1   1.0000000  0.0000000  0.0000000  0.0000000  0.0000000
 2   0.0000000  1.0000000  0.0000000  0.0000000  0.0000000
 3   0.0000000  0.0000000  1.0000000  0.0000000  0.0000000
 4   0.0000000  0.0000000  0.0000000  1.0000000  0.0000000
 5   0.0000000  0.0000000  0.0000000  0.0000000  1.0000000
 occupations
 0.600  0.000  0.000  0.000  0.000
 0.000  0.600  0.000  0.000  0.000
 0.000  0.000  0.600  0.000  0.000
 0.000  0.000  0.000  0.600  0.000
 0.000  0.000  0.000  0.000  0.600
atom    3   spin  2
eigenvalues:  0.0000000 0.0000000 0.0000000 0.0000000 0.0000000
 eigenvectors
 1   1.0000000  0.0000000  0.0000000  0.0000000  0.0000000
 2   0.0000000  1.0000000  0.0000000  0.0000000  0.0000000
 3   0.0000000  0.0000000  1.0000000  0.0000000  0.0000000
 4   0.0000000  0.0000000  0.0000000  1.0000000  0.0000000
 5   0.0000000  0.0000000  0.0000000  0.0000000  1.0000000
 occupations
 0.000  0.000  0.000  0.000  0.000
 0.000  0.000  0.000  0.000  0.000
 0.000  0.000  0.000  0.000  0.000
 0.000  0.000  0.000  0.000  0.000
 0.000  0.000  0.000  0.000  0.000
atom    4   Tr[ns(na)]=   3.0000000
atom    4   spin  1
eigenvalues:  0.6000000 0.6000000 0.6000000 0.6000000 0.6000000
 eigenvectors
 1   1.0000000  0.0000000  0.0000000  0.0000000  0.0000000
 2   0.0000000  1.0000000  0.0000000  0.0000000  0.0000000
 3   0.0000000  0.0000000  1.0000000  0.0000000  0.0000000
 4   0.0000000  0.0000000  0.0000000  1.0000000  0.0000000
 5   0.0000000  0.0000000  0.0000000  0.0000000  1.0000000
 occupations
 0.600  0.000  0.000  0.000  0.000
 0.000  0.600  0.000  0.000  0.000
 0.000  0.000  0.600  0.000  0.000
 0.000  0.000  0.000  0.600  0.000
 0.000  0.000  0.000  0.000  0.600
atom    4   spin  2
eigenvalues:  0.0000000 0.0000000 0.0000000 0.0000000 0.0000000
 eigenvectors
 1   1.0000000  0.0000000  0.0000000  0.0000000  0.0000000
 2   0.0000000  1.0000000  0.0000000  0.0000000  0.0000000
 3   0.0000000  0.0000000  1.0000000  0.0000000  0.0000000
 4   0.0000000  0.0000000  0.0000000  1.0000000  0.0000000
 5   0.0000000  0.0000000  0.0000000  0.0000000  1.0000000
 occupations
 0.000  0.000  0.000  0.000  0.000
 0.000  0.000  0.000  0.000  0.000
 0.000  0.000  0.000  0.000  0.000
 0.000  0.000  0.000  0.000  0.000
 0.000  0.000  0.000  0.000  0.000
atom    5   Tr[ns(na)]=   3.0000000
atom    5   spin  1
eigenvalues:  0.6000000 0.6000000 0.6000000 0.6000000 0.6000000
 eigenvectors
 1   1.0000000  0.0000000  0.0000000  0.0000000  0.0000000
 2   0.0000000  1.0000000  0.0000000  0.0000000  0.0000000
 3   0.0000000  0.0000000  1.0000000  0.0000000  0.0000000
 4   0.0000000  0.0000000  0.0000000  1.0000000  0.0000000
 5   0.0000000  0.0000000  0.0000000  0.0000000  1.0000000
 occupations
 0.600  0.000  0.000  0.000  0.000
 0.000  0.600  0.000  0.000  0.000
 0.000  0.000  0.600  0.000  0.000
 0.000  0.000  0.000  0.600  0.000
 0.000  0.000  0.000  0.000  0.600
atom    5   spin  2
eigenvalues:  0.0000000 0.0000000 0.0000000 0.0000000 0.0000000
 eigenvectors
 1   1.0000000  0.0000000  0.0000000  0.0000000  0.0000000
 2   0.0000000  1.0000000  0.0000000  0.0000000  0.0000000
 3   0.0000000  0.0000000  1.0000000  0.0000000  0.0000000
 4   0.0000000  0.0000000  0.0000000  1.0000000  0.0000000
 5   0.0000000  0.0000000  0.0000000  0.0000000  1.0000000
 occupations
 0.000  0.000  0.000  0.000  0.000
 0.000  0.000  0.000  0.000  0.000
 0.000  0.000  0.000  0.000  0.000
 0.000  0.000  0.000  0.000  0.000
 0.000  0.000  0.000  0.000  0.000
atom    6   Tr[ns(na)]=   3.0000000
atom    6   spin  1
eigenvalues:  0.6000000 0.6000000 0.6000000 0.6000000 0.6000000
 eigenvectors
 1   1.0000000  0.0000000  0.0000000  0.0000000  0.0000000
 2   0.0000000  1.0000000  0.0000000  0.0000000  0.0000000
 3   0.0000000  0.0000000  1.0000000  0.0000000  0.0000000
 4   0.0000000  0.0000000  0.0000000  1.0000000  0.0000000
 5   0.0000000  0.0000000  0.0000000  0.0000000  1.0000000
 occupations
 0.600  0.000  0.000  0.000  0.000
 0.000  0.600  0.000  0.000  0.000
 0.000  0.000  0.600  0.000  0.000
 0.000  0.000  0.000  0.600  0.000
 0.000  0.000  0.000  0.000  0.600
atom    6   spin  2
eigenvalues:  0.0000000 0.0000000 0.0000000 0.0000000 0.0000000
 eigenvectors
 1   1.0000000  0.0000000  0.0000000  0.0000000  0.0000000
 2   0.0000000  1.0000000  0.0000000  0.0000000  0.0000000
 3   0.0000000  0.0000000  1.0000000  0.0000000  0.0000000
 4   0.0000000  0.0000000  0.0000000  1.0000000  0.0000000
 5   0.0000000  0.0000000  0.0000000  0.0000000  1.0000000
 occupations
 0.000  0.000  0.000  0.000  0.000
 0.000  0.000  0.000  0.000  0.000
 0.000  0.000  0.000  0.000  0.000
 0.000  0.000  0.000  0.000  0.000
 0.000  0.000  0.000  0.000  0.000
atom    7   Tr[ns(na)]=   3.0000000
atom    7   spin  1
eigenvalues:  0.6000000 0.6000000 0.6000000 0.6000000 0.6000000
 eigenvectors
 1   1.0000000  0.0000000  0.0000000  0.0000000  0.0000000
 2   0.0000000  1.0000000  0.0000000  0.0000000  0.0000000
 3   0.0000000  0.0000000  1.0000000  0.0000000  0.0000000
 4   0.0000000  0.0000000  0.0000000  1.0000000  0.0000000
 5   0.0000000  0.0000000  0.0000000  0.0000000  1.0000000
 occupations
 0.600  0.000  0.000  0.000  0.000
 0.000  0.600  0.000  0.000  0.000
 0.000  0.000  0.600  0.000  0.000
 0.000  0.000  0.000  0.600  0.000
 0.000  0.000  0.000  0.000  0.600
atom    7   spin  2
eigenvalues:  0.0000000 0.0000000 0.0000000 0.0000000 0.0000000
 eigenvectors
 1   1.0000000  0.0000000  0.0000000  0.0000000  0.0000000
 2   0.0000000  1.0000000  0.0000000  0.0000000  0.0000000
 3   0.0000000  0.0000000  1.0000000  0.0000000  0.0000000
 4   0.0000000  0.0000000  0.0000000  1.0000000  0.0000000
 5   0.0000000  0.0000000  0.0000000  0.0000000  1.0000000
 occupations
 0.000  0.000  0.000  0.000  0.000
 0.000  0.000  0.000  0.000  0.000
 0.000  0.000  0.000  0.000  0.000
 0.000  0.000  0.000  0.000  0.000
 0.000  0.000  0.000  0.000  0.000
atom    8   Tr[ns(na)]=   3.0000000
atom    8   spin  1
eigenvalues:  0.6000000 0.6000000 0.6000000 0.6000000 0.6000000
 eigenvectors
 1   1.0000000  0.0000000  0.0000000  0.0000000  0.0000000
 2   0.0000000  1.0000000  0.0000000  0.0000000  0.0000000
 3   0.0000000  0.0000000  1.0000000  0.0000000  0.0000000
 4   0.0000000  0.0000000  0.0000000  1.0000000  0.0000000
 5   0.0000000  0.0000000  0.0000000  0.0000000  1.0000000
 occupations
 0.600  0.000  0.000  0.000  0.000
 0.000  0.600  0.000  0.000  0.000
 0.000  0.000  0.600  0.000  0.000
 0.000  0.000  0.000  0.600  0.000
 0.000  0.000  0.000  0.000  0.600
atom    8   spin  2
eigenvalues:  0.0000000 0.0000000 0.0000000 0.0000000 0.0000000
 eigenvectors
 1   1.0000000  0.0000000  0.0000000  0.0000000  0.0000000
 2   0.0000000  1.0000000  0.0000000  0.0000000  0.0000000
 3   0.0000000  0.0000000  1.0000000  0.0000000  0.0000000
 4   0.0000000  0.0000000  0.0000000  1.0000000  0.0000000
 5   0.0000000  0.0000000  0.0000000  0.0000000  1.0000000
 occupations
 0.000  0.000  0.000  0.000  0.000
 0.000  0.000  0.000  0.000  0.000
 0.000  0.000  0.000  0.000  0.000
 0.000  0.000  0.000  0.000  0.000
 0.000  0.000  0.000  0.000  0.000
atom    9   Tr[ns(na)]=   3.0000000
atom    9   spin  1
eigenvalues:  0.6000000 0.6000000 0.6000000 0.6000000 0.6000000
 eigenvectors
 1   1.0000000  0.0000000  0.0000000  0.0000000  0.0000000
 2   0.0000000  1.0000000  0.0000000  0.0000000  0.0000000
 3   0.0000000  0.0000000  1.0000000  0.0000000  0.0000000
 4   0.0000000  0.0000000  0.0000000  1.0000000  0.0000000
 5   0.0000000  0.0000000  0.0000000  0.0000000  1.0000000
 occupations
 0.600  0.000  0.000  0.000  0.000
 0.000  0.600  0.000  0.000  0.000
 0.000  0.000  0.600  0.000  0.000
 0.000  0.000  0.000  0.600  0.000
 0.000  0.000  0.000  0.000  0.600
atom    9   spin  2
eigenvalues:  0.0000000 0.0000000 0.0000000 0.0000000 0.0000000
 eigenvectors
 1   1.0000000  0.0000000  0.0000000  0.0000000  0.0000000
 2   0.0000000  1.0000000  0.0000000  0.0000000  0.0000000
 3   0.0000000  0.0000000  1.0000000  0.0000000  0.0000000
 4   0.0000000  0.0000000  0.0000000  1.0000000  0.0000000
 5   0.0000000  0.0000000  0.0000000  0.0000000  1.0000000
 occupations
 0.000  0.000  0.000  0.000  0.000
 0.000  0.000  0.000  0.000  0.000
 0.000  0.000  0.000  0.000  0.000
 0.000  0.000  0.000  0.000  0.000
 0.000  0.000  0.000  0.000  0.000
atom   10   Tr[ns(na)]=   3.0000000
atom   10   spin  1
eigenvalues:  0.6000000 0.6000000 0.6000000 0.6000000 0.6000000
 eigenvectors
 1   1.0000000  0.0000000  0.0000000  0.0000000  0.0000000
 2   0.0000000  1.0000000  0.0000000  0.0000000  0.0000000
 3   0.0000000  0.0000000  1.0000000  0.0000000  0.0000000
 4   0.0000000  0.0000000  0.0000000  1.0000000  0.0000000
 5   0.0000000  0.0000000  0.0000000  0.0000000  1.0000000
 occupations
 0.600  0.000  0.000  0.000  0.000
 0.000  0.600  0.000  0.000  0.000
 0.000  0.000  0.600  0.000  0.000
 0.000  0.000  0.000  0.600  0.000
 0.000  0.000  0.000  0.000  0.600
atom   10   spin  2
eigenvalues:  0.0000000 0.0000000 0.0000000 0.0000000 0.0000000
 eigenvectors
 1   1.0000000  0.0000000  0.0000000  0.0000000  0.0000000
 2   0.0000000  1.0000000  0.0000000  0.0000000  0.0000000
 3   0.0000000  0.0000000  1.0000000  0.0000000  0.0000000
 4   0.0000000  0.0000000  0.0000000  1.0000000  0.0000000
 5   0.0000000  0.0000000  0.0000000  0.0000000  1.0000000
 occupations
 0.000  0.000  0.000  0.000  0.000
 0.000  0.000  0.000  0.000  0.000
 0.000  0.000  0.000  0.000  0.000
 0.000  0.000  0.000  0.000  0.000
 0.000  0.000  0.000  0.000  0.000
atom   11   Tr[ns(na)]=   3.0000000
atom   11   spin  1
eigenvalues:  0.6000000 0.6000000 0.6000000 0.6000000 0.6000000
 eigenvectors
 1   1.0000000  0.0000000  0.0000000  0.0000000  0.0000000
 2   0.0000000  1.0000000  0.0000000  0.0000000  0.0000000
 3   0.0000000  0.0000000  1.0000000  0.0000000  0.0000000
 4   0.0000000  0.0000000  0.0000000  1.0000000  0.0000000
 5   0.0000000  0.0000000  0.0000000  0.0000000  1.0000000
 occupations
 0.600  0.000  0.000  0.000  0.000
 0.000  0.600  0.000  0.000  0.000
 0.000  0.000  0.600  0.000  0.000
 0.000  0.000  0.000  0.600  0.000
 0.000  0.000  0.000  0.000  0.600
atom   11   spin  2
eigenvalues:  0.0000000 0.0000000 0.0000000 0.0000000 0.0000000
 eigenvectors
 1   1.0000000  0.0000000  0.0000000  0.0000000  0.0000000
 2   0.0000000  1.0000000  0.0000000  0.0000000  0.0000000
 3   0.0000000  0.0000000  1.0000000  0.0000000  0.0000000
 4   0.0000000  0.0000000  0.0000000  1.0000000  0.0000000
 5   0.0000000  0.0000000  0.0000000  0.0000000  1.0000000
 occupations
 0.000  0.000  0.000  0.000  0.000
 0.000  0.000  0.000  0.000  0.000
 0.000  0.000  0.000  0.000  0.000
 0.000  0.000  0.000  0.000  0.000
 0.000  0.000  0.000  0.000  0.000
atom   12   Tr[ns(na)]=   3.0000000
atom   12   spin  1
eigenvalues:  0.6000000 0.6000000 0.6000000 0.6000000 0.6000000
 eigenvectors
 1   1.0000000  0.0000000  0.0000000  0.0000000  0.0000000
 2   0.0000000  1.0000000  0.0000000  0.0000000  0.0000000
 3   0.0000000  0.0000000  1.0000000  0.0000000  0.0000000
 4   0.0000000  0.0000000  0.0000000  1.0000000  0.0000000
 5   0.0000000  0.0000000  0.0000000  0.0000000  1.0000000
 occupations
 0.600  0.000  0.000  0.000  0.000
 0.000  0.600  0.000  0.000  0.000
 0.000  0.000  0.600  0.000  0.000
 0.000  0.000  0.000  0.600  0.000
 0.000  0.000  0.000  0.000  0.600
atom   12   spin  2
eigenvalues:  0.0000000 0.0000000 0.0000000 0.0000000 0.0000000
 eigenvectors
 1   1.0000000  0.0000000  0.0000000  0.0000000  0.0000000
 2   0.0000000  1.0000000  0.0000000  0.0000000  0.0000000
 3   0.0000000  0.0000000  1.0000000  0.0000000  0.0000000
 4   0.0000000  0.0000000  0.0000000  1.0000000  0.0000000
 5   0.0000000  0.0000000  0.0000000  0.0000000  1.0000000
 occupations
 0.000  0.000  0.000  0.000  0.000
 0.000  0.000  0.000  0.000  0.000
 0.000  0.000  0.000  0.000  0.000
 0.000  0.000  0.000  0.000  0.000
 0.000  0.000  0.000  0.000  0.000
atom   13   Tr[ns(na)]=   3.0000000
atom   13   spin  1
eigenvalues:  0.6000000 0.6000000 0.6000000 0.6000000 0.6000000
 eigenvectors
 1   1.0000000  0.0000000  0.0000000  0.0000000  0.0000000
 2   0.0000000  1.0000000  0.0000000  0.0000000  0.0000000
 3   0.0000000  0.0000000  1.0000000  0.0000000  0.0000000
 4   0.0000000  0.0000000  0.0000000  1.0000000  0.0000000
 5   0.0000000  0.0000000  0.0000000  0.0000000  1.0000000
 occupations
 0.600  0.000  0.000  0.000  0.000
 0.000  0.600  0.000  0.000  0.000
 0.000  0.000  0.600  0.000  0.000
 0.000  0.000  0.000  0.600  0.000
 0.000  0.000  0.000  0.000  0.600
atom   13   spin  2
eigenvalues:  0.0000000 0.0000000 0.0000000 0.0000000 0.0000000
 eigenvectors
 1   1.0000000  0.0000000  0.0000000  0.0000000  0.0000000
 2   0.0000000  1.0000000  0.0000000  0.0000000  0.0000000
 3   0.0000000  0.0000000  1.0000000  0.0000000  0.0000000
 4   0.0000000  0.0000000  0.0000000  1.0000000  0.0000000
 5   0.0000000  0.0000000  0.0000000  0.0000000  1.0000000
 occupations
 0.000  0.000  0.000  0.000  0.000
 0.000  0.000  0.000  0.000  0.000
 0.000  0.000  0.000  0.000  0.000
 0.000  0.000  0.000  0.000  0.000
 0.000  0.000  0.000  0.000  0.000
atom   14   Tr[ns(na)]=   3.0000000
atom   14   spin  1
eigenvalues:  0.6000000 0.6000000 0.6000000 0.6000000 0.6000000
 eigenvectors
 1   1.0000000  0.0000000  0.0000000  0.0000000  0.0000000
 2   0.0000000  1.0000000  0.0000000  0.0000000  0.0000000
 3   0.0000000  0.0000000  1.0000000  0.0000000  0.0000000
 4   0.0000000  0.0000000  0.0000000  1.0000000  0.0000000
 5   0.0000000  0.0000000  0.0000000  0.0000000  1.0000000
 occupations
 0.600  0.000  0.000  0.000  0.000
 0.000  0.600  0.000  0.000  0.000
 0.000  0.000  0.600  0.000  0.000
 0.000  0.000  0.000  0.600  0.000
 0.000  0.000  0.000  0.000  0.600
atom   14   spin  2
eigenvalues:  0.0000000 0.0000000 0.0000000 0.0000000 0.0000000
 eigenvectors
 1   1.0000000  0.0000000  0.0000000  0.0000000  0.0000000
 2   0.0000000  1.0000000  0.0000000  0.0000000  0.0000000
 3   0.0000000  0.0000000  1.0000000  0.0000000  0.0000000
 4   0.0000000  0.0000000  0.0000000  1.0000000  0.0000000
 5   0.0000000  0.0000000  0.0000000  0.0000000  1.0000000
 occupations
 0.000  0.000  0.000  0.000  0.000
 0.000  0.000  0.000  0.000  0.000
 0.000  0.000  0.000  0.000  0.000
 0.000  0.000  0.000  0.000  0.000
 0.000  0.000  0.000  0.000  0.000
atom   15   Tr[ns(na)]=   3.0000000
atom   15   spin  1
eigenvalues:  0.6000000 0.6000000 0.6000000 0.6000000 0.6000000
 eigenvectors
 1   1.0000000  0.0000000  0.0000000  0.0000000  0.0000000
 2   0.0000000  1.0000000  0.0000000  0.0000000  0.0000000
 3   0.0000000  0.0000000  1.0000000  0.0000000  0.0000000
 4   0.0000000  0.0000000  0.0000000  1.0000000  0.0000000
 5   0.0000000  0.0000000  0.0000000  0.0000000  1.0000000
 occupations
 0.600  0.000  0.000  0.000  0.000
 0.000  0.600  0.000  0.000  0.000
 0.000  0.000  0.600  0.000  0.000
 0.000  0.000  0.000  0.600  0.000
 0.000  0.000  0.000  0.000  0.600
atom   15   spin  2
eigenvalues:  0.0000000 0.0000000 0.0000000 0.0000000 0.0000000
 eigenvectors
 1   1.0000000  0.0000000  0.0000000  0.0000000  0.0000000
 2   0.0000000  1.0000000  0.0000000  0.0000000  0.0000000
 3   0.0000000  0.0000000  1.0000000  0.0000000  0.0000000
 4   0.0000000  0.0000000  0.0000000  1.0000000  0.0000000
 5   0.0000000  0.0000000  0.0000000  0.0000000  1.0000000
 occupations
 0.000  0.000  0.000  0.000  0.000
 0.000  0.000  0.000  0.000  0.000
 0.000  0.000  0.000  0.000  0.000
 0.000  0.000  0.000  0.000  0.000
 0.000  0.000  0.000  0.000  0.000
atom   16   Tr[ns(na)]=   3.0000000
atom   16   spin  1
eigenvalues:  0.6000000 0.6000000 0.6000000 0.6000000 0.6000000
 eigenvectors
 1   1.0000000  0.0000000  0.0000000  0.0000000  0.0000000
 2   0.0000000  1.0000000  0.0000000  0.0000000  0.0000000
 3   0.0000000  0.0000000  1.0000000  0.0000000  0.0000000
 4   0.0000000  0.0000000  0.0000000  1.0000000  0.0000000
 5   0.0000000  0.0000000  0.0000000  0.0000000  1.0000000
 occupations
 0.600  0.000  0.000  0.000  0.000
 0.000  0.600  0.000  0.000  0.000
 0.000  0.000  0.600  0.000  0.000
 0.000  0.000  0.000  0.600  0.000
 0.000  0.000  0.000  0.000  0.600
atom   16   spin  2
eigenvalues:  0.0000000 0.0000000 0.0000000 0.0000000 0.0000000
 eigenvectors
 1   1.0000000  0.0000000  0.0000000  0.0000000  0.0000000
 2   0.0000000  1.0000000  0.0000000  0.0000000  0.0000000
 3   0.0000000  0.0000000  1.0000000  0.0000000  0.0000000
 4   0.0000000  0.0000000  0.0000000  1.0000000  0.0000000
 5   0.0000000  0.0000000  0.0000000  0.0000000  1.0000000
 occupations
 0.000  0.000  0.000  0.000  0.000
 0.000  0.000  0.000  0.000  0.000
 0.000  0.000  0.000  0.000  0.000
 0.000  0.000  0.000  0.000  0.000
 0.000  0.000  0.000  0.000  0.000
atom   17   Tr[ns(na)]=   3.0000000
atom   17   spin  1
eigenvalues:  0.6000000 0.6000000 0.6000000 0.6000000 0.6000000
 eigenvectors
 1   1.0000000  0.0000000  0.0000000  0.0000000  0.0000000
 2   0.0000000  1.0000000  0.0000000  0.0000000  0.0000000
 3   0.0000000  0.0000000  1.0000000  0.0000000  0.0000000
 4   0.0000000  0.0000000  0.0000000  1.0000000  0.0000000
 5   0.0000000  0.0000000  0.0000000  0.0000000  1.0000000
 occupations
 0.600  0.000  0.000  0.000  0.000
 0.000  0.600  0.000  0.000  0.000
 0.000  0.000  0.600  0.000  0.000
 0.000  0.000  0.000  0.600  0.000
 0.000  0.000  0.000  0.000  0.600
atom   17   spin  2
eigenvalues:  0.0000000 0.0000000 0.0000000 0.0000000 0.0000000
 eigenvectors
 1   1.0000000  0.0000000  0.0000000  0.0000000  0.0000000
 2   0.0000000  1.0000000  0.0000000  0.0000000  0.0000000
 3   0.0000000  0.0000000  1.0000000  0.0000000  0.0000000
 4   0.0000000  0.0000000  0.0000000  1.0000000  0.0000000
 5   0.0000000  0.0000000  0.0000000  0.0000000  1.0000000
 occupations
 0.000  0.000  0.000  0.000  0.000
 0.000  0.000  0.000  0.000  0.000
 0.000  0.000  0.000  0.000  0.000
 0.000  0.000  0.000  0.000  0.000
 0.000  0.000  0.000  0.000  0.000
atom   18   Tr[ns(na)]=   3.0000000
atom   18   spin  1
eigenvalues:  0.6000000 0.6000000 0.6000000 0.6000000 0.6000000
 eigenvectors
 1   1.0000000  0.0000000  0.0000000  0.0000000  0.0000000
 2   0.0000000  1.0000000  0.0000000  0.0000000  0.0000000
 3   0.0000000  0.0000000  1.0000000  0.0000000  0.0000000
 4   0.0000000  0.0000000  0.0000000  1.0000000  0.0000000
 5   0.0000000  0.0000000  0.0000000  0.0000000  1.0000000
 occupations
 0.600  0.000  0.000  0.000  0.000
 0.000  0.600  0.000  0.000  0.000
 0.000  0.000  0.600  0.000  0.000
 0.000  0.000  0.000  0.600  0.000
 0.000  0.000  0.000  0.000  0.600
atom   18   spin  2
eigenvalues:  0.0000000 0.0000000 0.0000000 0.0000000 0.0000000
 eigenvectors
 1   1.0000000  0.0000000  0.0000000  0.0000000  0.0000000
 2   0.0000000  1.0000000  0.0000000  0.0000000  0.0000000
 3   0.0000000  0.0000000  1.0000000  0.0000000  0.0000000
 4   0.0000000  0.0000000  0.0000000  1.0000000  0.0000000
 5   0.0000000  0.0000000  0.0000000  0.0000000  1.0000000
 occupations
 0.000  0.000  0.000  0.000  0.000
 0.000  0.000  0.000  0.000  0.000
 0.000  0.000  0.000  0.000  0.000
 0.000  0.000  0.000  0.000  0.000
 0.000  0.000  0.000  0.000  0.000
atom   19   Tr[ns(na)]=   3.0000000
atom   19   spin  1
eigenvalues:  0.6000000 0.6000000 0.6000000 0.6000000 0.6000000
 eigenvectors
 1   1.0000000  0.0000000  0.0000000  0.0000000  0.0000000
 2   0.0000000  1.0000000  0.0000000  0.0000000  0.0000000
 3   0.0000000  0.0000000  1.0000000  0.0000000  0.0000000
 4   0.0000000  0.0000000  0.0000000  1.0000000  0.0000000
 5   0.0000000  0.0000000  0.0000000  0.0000000  1.0000000
 occupations
 0.600  0.000  0.000  0.000  0.000
 0.000  0.600  0.000  0.000  0.000
 0.000  0.000  0.600  0.000  0.000
 0.000  0.000  0.000  0.600  0.000
 0.000  0.000  0.000  0.000  0.600
atom   19   spin  2
eigenvalues:  0.0000000 0.0000000 0.0000000 0.0000000 0.0000000
 eigenvectors
 1   1.0000000  0.0000000  0.0000000  0.0000000  0.0000000
 2   0.0000000  1.0000000  0.0000000  0.0000000  0.0000000
 3   0.0000000  0.0000000  1.0000000  0.0000000  0.0000000
 4   0.0000000  0.0000000  0.0000000  1.0000000  0.0000000
 5   0.0000000  0.0000000  0.0000000  0.0000000  1.0000000
 occupations
 0.000  0.000  0.000  0.000  0.000
 0.000  0.000  0.000  0.000  0.000
 0.000  0.000  0.000  0.000  0.000
 0.000  0.000  0.000  0.000  0.000
 0.000  0.000  0.000  0.000  0.000
atom   20   Tr[ns(na)]=   3.0000000
atom   20   spin  1
eigenvalues:  0.6000000 0.6000000 0.6000000 0.6000000 0.6000000
 eigenvectors
 1   1.0000000  0.0000000  0.0000000  0.0000000  0.0000000
 2   0.0000000  1.0000000  0.0000000  0.0000000  0.0000000
 3   0.0000000  0.0000000  1.0000000  0.0000000  0.0000000
 4   0.0000000  0.0000000  0.0000000  1.0000000  0.0000000
 5   0.0000000  0.0000000  0.0000000  0.0000000  1.0000000
 occupations
 0.600  0.000  0.000  0.000  0.000
 0.000  0.600  0.000  0.000  0.000
 0.000  0.000  0.600  0.000  0.000
 0.000  0.000  0.000  0.600  0.000
 0.000  0.000  0.000  0.000  0.600
atom   20   spin  2
eigenvalues:  0.0000000 0.0000000 0.0000000 0.0000000 0.0000000
 eigenvectors
 1   1.0000000  0.0000000  0.0000000  0.0000000  0.0000000
 2   0.0000000  1.0000000  0.0000000  0.0000000  0.0000000
 3   0.0000000  0.0000000  1.0000000  0.0000000  0.0000000
 4   0.0000000  0.0000000  0.0000000  1.0000000  0.0000000
 5   0.0000000  0.0000000  0.0000000  0.0000000  1.0000000
 occupations
 0.000  0.000  0.000  0.000  0.000
 0.000  0.000  0.000  0.000  0.000
 0.000  0.000  0.000  0.000  0.000
 0.000  0.000  0.000  0.000  0.000
 0.000  0.000  0.000  0.000  0.000
atom   21   Tr[ns(na)]=   3.0000000
atom   21   spin  1
eigenvalues:  0.6000000 0.6000000 0.6000000 0.6000000 0.6000000
 eigenvectors
 1   1.0000000  0.0000000  0.0000000  0.0000000  0.0000000
 2   0.0000000  1.0000000  0.0000000  0.0000000  0.0000000
 3   0.0000000  0.0000000  1.0000000  0.0000000  0.0000000
 4   0.0000000  0.0000000  0.0000000  1.0000000  0.0000000
 5   0.0000000  0.0000000  0.0000000  0.0000000  1.0000000
 occupations
 0.600  0.000  0.000  0.000  0.000
 0.000  0.600  0.000  0.000  0.000
 0.000  0.000  0.600  0.000  0.000
 0.000  0.000  0.000  0.600  0.000
 0.000  0.000  0.000  0.000  0.600
atom   21   spin  2
eigenvalues:  0.0000000 0.0000000 0.0000000 0.0000000 0.0000000
 eigenvectors
 1   1.0000000  0.0000000  0.0000000  0.0000000  0.0000000
 2   0.0000000  1.0000000  0.0000000  0.0000000  0.0000000
 3   0.0000000  0.0000000  1.0000000  0.0000000  0.0000000
 4   0.0000000  0.0000000  0.0000000  1.0000000  0.0000000
 5   0.0000000  0.0000000  0.0000000  0.0000000  1.0000000
 occupations
 0.000  0.000  0.000  0.000  0.000
 0.000  0.000  0.000  0.000  0.000
 0.000  0.000  0.000  0.000  0.000
 0.000  0.000  0.000  0.000  0.000
 0.000  0.000  0.000  0.000  0.000
atom   22   Tr[ns(na)]=   3.0000000
atom   22   spin  1
eigenvalues:  0.6000000 0.6000000 0.6000000 0.6000000 0.6000000
 eigenvectors
 1   1.0000000  0.0000000  0.0000000  0.0000000  0.0000000
 2   0.0000000  1.0000000  0.0000000  0.0000000  0.0000000
 3   0.0000000  0.0000000  1.0000000  0.0000000  0.0000000
 4   0.0000000  0.0000000  0.0000000  1.0000000  0.0000000
 5   0.0000000  0.0000000  0.0000000  0.0000000  1.0000000
 occupations
 0.600  0.000  0.000  0.000  0.000
 0.000  0.600  0.000  0.000  0.000
 0.000  0.000  0.600  0.000  0.000
 0.000  0.000  0.000  0.600  0.000
 0.000  0.000  0.000  0.000  0.600
atom   22   spin  2
eigenvalues:  0.0000000 0.0000000 0.0000000 0.0000000 0.0000000
 eigenvectors
 1   1.0000000  0.0000000  0.0000000  0.0000000  0.0000000
 2   0.0000000  1.0000000  0.0000000  0.0000000  0.0000000
 3   0.0000000  0.0000000  1.0000000  0.0000000  0.0000000
 4   0.0000000  0.0000000  0.0000000  1.0000000  0.0000000
 5   0.0000000  0.0000000  0.0000000  0.0000000  1.0000000
 occupations
 0.000  0.000  0.000  0.000  0.000
 0.000  0.000  0.000  0.000  0.000
 0.000  0.000  0.000  0.000  0.000
 0.000  0.000  0.000  0.000  0.000
 0.000  0.000  0.000  0.000  0.000
atom   23   Tr[ns(na)]=   3.0000000
atom   23   spin  1
eigenvalues:  0.6000000 0.6000000 0.6000000 0.6000000 0.6000000
 eigenvectors
 1   1.0000000  0.0000000  0.0000000  0.0000000  0.0000000
 2   0.0000000  1.0000000  0.0000000  0.0000000  0.0000000
 3   0.0000000  0.0000000  1.0000000  0.0000000  0.0000000
 4   0.0000000  0.0000000  0.0000000  1.0000000  0.0000000
 5   0.0000000  0.0000000  0.0000000  0.0000000  1.0000000
 occupations
 0.600  0.000  0.000  0.000  0.000
 0.000  0.600  0.000  0.000  0.000
 0.000  0.000  0.600  0.000  0.000
 0.000  0.000  0.000  0.600  0.000
 0.000  0.000  0.000  0.000  0.600
atom   23   spin  2
eigenvalues:  0.0000000 0.0000000 0.0000000 0.0000000 0.0000000
 eigenvectors
 1   1.0000000  0.0000000  0.0000000  0.0000000  0.0000000
 2   0.0000000  1.0000000  0.0000000  0.0000000  0.0000000
 3   0.0000000  0.0000000  1.0000000  0.0000000  0.0000000
 4   0.0000000  0.0000000  0.0000000  1.0000000  0.0000000
 5   0.0000000  0.0000000  0.0000000  0.0000000  1.0000000
 occupations
 0.000  0.000  0.000  0.000  0.000
 0.000  0.000  0.000  0.000  0.000
 0.000  0.000  0.000  0.000  0.000
 0.000  0.000  0.000  0.000  0.000
 0.000  0.000  0.000  0.000  0.000
atom   24   Tr[ns(na)]=   3.0000000
atom   24   spin  1
eigenvalues:  0.6000000 0.6000000 0.6000000 0.6000000 0.6000000
 eigenvectors
 1   1.0000000  0.0000000  0.0000000  0.0000000  0.0000000
 2   0.0000000  1.0000000  0.0000000  0.0000000  0.0000000
 3   0.0000000  0.0000000  1.0000000  0.0000000  0.0000000
 4   0.0000000  0.0000000  0.0000000  1.0000000  0.0000000
 5   0.0000000  0.0000000  0.0000000  0.0000000  1.0000000
 occupations
 0.600  0.000  0.000  0.000  0.000
 0.000  0.600  0.000  0.000  0.000
 0.000  0.000  0.600  0.000  0.000
 0.000  0.000  0.000  0.600  0.000
 0.000  0.000  0.000  0.000  0.600
atom   24   spin  2
eigenvalues:  0.0000000 0.0000000 0.0000000 0.0000000 0.0000000
 eigenvectors
 1   1.0000000  0.0000000  0.0000000  0.0000000  0.0000000
 2   0.0000000  1.0000000  0.0000000  0.0000000  0.0000000
 3   0.0000000  0.0000000  1.0000000  0.0000000  0.0000000
 4   0.0000000  0.0000000  0.0000000  1.0000000  0.0000000
 5   0.0000000  0.0000000  0.0000000  0.0000000  1.0000000
 occupations
 0.000  0.000  0.000  0.000  0.000
 0.000  0.000  0.000  0.000  0.000
 0.000  0.000  0.000  0.000  0.000
 0.000  0.000  0.000  0.000  0.000
 0.000  0.000  0.000  0.000  0.000
nsum =  72.0000000
 exit write_ns
 Atomic wfc used for LDA+U Projector are NOT orthogonalized
     Starting wfc are  480 atomic wfcs

     total cpu time spent up to now is     26.86 secs

     per-process dynamical memory:   111.0 Mb

     Self-consistent Calculation

     iteration #  1     ecut=    30.00 Ry     beta=0.30
     Davidson diagonalization with overlap
     ethr =  1.00E-02,  avg # of iterations =  2.1
 enter write_ns
U( 1) =  0.0000      U( 2) =  3.1000      U( 3) =  0.0000
alpha( 1) =  0.0000      alpha( 2) =  0.0000      alpha( 3) =  0.0000
atom    1   Tr[ns(na)]=   2.9772842
atom    1   spin  1
eigenvalues:  0.2105911 0.3180401 0.3202611 0.3771451 0.4251777
 eigenvectors
 1  -0.0031610 -0.0044861  0.1058836 -0.0029853  0.9943589
 2  -0.0228744 -0.9407936  0.0161667  0.3377833 -0.0050245
 3   0.0030153  0.0216617  0.9940909  0.0113854 -0.1057136
 4   0.0867993  0.3344161 -0.0176073  0.9382323  0.0064763
 5   0.9959536 -0.0508323 -0.0007678 -0.0740547  0.0027961
 occupations
 0.425 -0.004 -0.000 -0.003  0.001
-0.004  0.325 -0.000  0.019  0.001
-0.000 -0.000  0.319 -0.001 -0.012
-0.003  0.019 -0.001  0.371  0.001
 0.001  0.001 -0.012  0.001  0.212
atom    1   spin  2
eigenvalues:  0.1566796 0.2413553 0.2426765 0.3210042 0.3643534
 eigenvectors
 1  -0.0022571 -0.0036650  0.1606233 -0.0020622  0.9870042
 2  -0.0297817 -0.9599447 -0.0210005  0.2778095  0.0003654
 3   0.0016256 -0.0170127  0.9867379  0.0161905 -0.1606056
 4   0.1119189  0.2732345 -0.0103432  0.9553458  0.0049498
 5   0.9932671 -0.0595504 -0.0007142 -0.0993475  0.0019590
 occupations
 0.364 -0.005 -0.000 -0.004  0.000
-0.005  0.248 -0.000  0.022  0.000
-0.000 -0.000  0.240 -0.001 -0.014
-0.004  0.022 -0.001  0.315  0.001
 0.000  0.000 -0.014  0.001  0.159
atom    2   Tr[ns(na)]=   2.9846546
atom    2   spin  1
eigenvalues:  0.2084300 0.3207929 0.3233576 0.3757781 0.4276714
 eigenvectors
 1  -0.0034039 -0.0033866  0.1033798 -0.0020654  0.9946282
 2  -0.0216226 -0.9292188  0.0356416  0.3671189 -0.0061801
 3   0.0036678  0.0404712  0.9938268  0.0044318 -0.1031370
 4   0.0804123  0.3639148 -0.0186948  0.9277507  0.0053839
 5   0.9965146 -0.0496885 -0.0010228 -0.0669210  0.0032085
 occupations
 0.427 -0.004 -0.000 -0.003  0.001
-0.004  0.328 -0.000  0.019  0.000
-0.000 -0.000  0.322 -0.001 -0.012
-0.003  0.019 -0.001  0.369  0.000
 0.001  0.000 -0.012  0.000  0.210
atom    2   spin  2
eigenvalues:  0.1552915 0.2430753 0.2443503 0.3196406 0.3662668
 eigenvectors
 1  -0.0023485 -0.0024440  0.1570081 -0.0019677  0.9875895
 2  -0.0297183 -0.9563603 -0.0133172  0.2903693  0.0002583
 3   0.0020236 -0.0095866  0.9874535  0.0140598 -0.1569773
 4   0.1014157  0.2862527 -0.0102813  0.9527059  0.0044823
 5   0.9943953 -0.0577620 -0.0009881 -0.0885192  0.0022024
 occupations
 0.366 -0.005 -0.000 -0.003  0.001
-0.005  0.250 -0.000  0.022  0.000
-0.000 -0.000  0.242 -0.001 -0.014
-0.003  0.022 -0.001  0.314  0.000
 0.001  0.000 -0.014  0.000  0.157
atom    3   Tr[ns(na)]=   2.9772842
atom    3   spin  1
eigenvalues:  0.2105911 0.3180401 0.3202611 0.3771451 0.4251777
 eigenvectors
 1   0.0031610  0.0044861  0.1058836  0.0029853  0.9943589
 2   0.0228744  0.9407936  0.0161667 -0.3377833 -0.0050245
 3   0.0030153  0.0216617 -0.9940909  0.0113854  0.1057136
 4   0.0867993  0.3344161  0.0176073  0.9382323 -0.0064763
 5   0.9959536 -0.0508323  0.0007678 -0.0740547 -0.0027961
 occupations
 0.425 -0.004  0.000 -0.003 -0.001
-0.004  0.325  0.000  0.019 -0.001
 0.000  0.000  0.319  0.001 -0.012
-0.003  0.019  0.001  0.371 -0.001
-0.001 -0.001 -0.012 -0.001  0.212
atom    3   spin  2
eigenvalues:  0.1566796 0.2413553 0.2426765 0.3210042 0.3643534
 eigenvectors
 1   0.0022571  0.0036650  0.1606233  0.0020622  0.9870042
 2   0.0297817  0.9599447 -0.0210005 -0.2778095  0.0003654
 3   0.0016256 -0.0170127 -0.9867379  0.0161905  0.1606056
 4   0.1119189  0.2732345  0.0103432  0.9553458 -0.0049498
 5   0.9932671 -0.0595504  0.0007142 -0.0993475 -0.0019590
 occupations
 0.364 -0.005  0.000 -0.004 -0.000
-0.005  0.248  0.000  0.022 -0.000
 0.000  0.000  0.240  0.001 -0.014
-0.004  0.022  0.001  0.315 -0.001
-0.000 -0.000 -0.014 -0.001  0.159
atom    4   Tr[ns(na)]=   2.9846546
atom    4   spin  1
eigenvalues:  0.2084300 0.3207929 0.3233576 0.3757781 0.4276714
 eigenvectors
 1   0.0034039  0.0033866  0.1033798  0.0020654  0.9946282
 2   0.0216226  0.9292188  0.0356416 -0.3671189 -0.0061801
 3   0.0036678  0.0404712 -0.9938268  0.0044318  0.1031370
 4   0.0804123  0.3639148  0.0186948  0.9277507 -0.0053839
 5   0.9965146 -0.0496885  0.0010228 -0.0669210 -0.0032085
 occupations
 0.427 -0.004  0.000 -0.003 -0.001
-0.004  0.328  0.000  0.019 -0.000
 0.000  0.000  0.322  0.001 -0.012
-0.003  0.019  0.001  0.369 -0.000
-0.001 -0.000 -0.012 -0.000  0.210
atom    4   spin  2
eigenvalues:  0.1552915 0.2430753 0.2443503 0.3196406 0.3662668
 eigenvectors
 1   0.0023485  0.0024440  0.1570081  0.0019677  0.9875895
 2   0.0297183  0.9563603 -0.0133172 -0.2903693  0.0002583
 3   0.0020236 -0.0095866 -0.9874535  0.0140598  0.1569773
 4   0.1014157  0.2862527  0.0102813  0.9527059 -0.0044823
 5   0.9943953 -0.0577620  0.0009881 -0.0885192 -0.0022024
 occupations
 0.366 -0.005  0.000 -0.003 -0.001
-0.005  0.250  0.000  0.022 -0.000
 0.000  0.000  0.242  0.001 -0.014
-0.003  0.022  0.001  0.314 -0.000
-0.001 -0.000 -0.014 -0.000  0.157
atom    5   Tr[ns(na)]=   2.9779385
atom    5   spin  1
eigenvalues:  0.2108408 0.3184238 0.3191368 0.3773628 0.4264014
 eigenvectors
 1  -0.0000000 -0.0000000  0.1069976  0.0000000  0.9942593
 2  -0.0000000 -0.0000000 -0.9942593  0.0000000  0.1069976
 3  -0.0156717 -0.9367533  0.0000000  0.3496393 -0.0000000
 4   0.1239823  0.3451630  0.0000000  0.9303176 -0.0000000
 5  -0.9921607  0.0579288  0.0000000  0.1107316 -0.0000000
 occupations
 0.426 -0.004 -0.000 -0.005  0.000
-0.004  0.326 -0.000  0.019  0.000
-0.000 -0.000  0.317  0.000 -0.011
-0.005  0.019  0.000  0.371 -0.000
 0.000  0.000 -0.011 -0.000  0.212
atom    5   spin  2
eigenvalues:  0.1566394 0.2410648 0.2416893 0.3210068 0.3653727
 eigenvectors
 1  -0.0000000 -0.0000000  0.1654011  0.0000000  0.9862264
 2  -0.0000000 -0.0000000 -0.9862264  0.0000000  0.1654011
 3  -0.0270434 -0.9583363  0.0000000  0.2843593 -0.0000000
 4   0.1426478  0.2778524  0.0000000  0.9499735 -0.0000000
 5  -0.9894040  0.0662538  0.0000000  0.1291905 -0.0000000
 occupations
 0.364 -0.005 -0.000 -0.005  0.000
-0.005  0.248 -0.000  0.022  0.000
-0.000 -0.000  0.239  0.000 -0.014
-0.005  0.022  0.000  0.315 -0.000
 0.000  0.000 -0.014 -0.000  0.159
atom    6   Tr[ns(na)]=   2.9808678
atom    6   spin  1
eigenvalues:  0.2098510 0.3199023 0.3201315 0.3766368 0.4275176
 eigenvectors
 1  -0.0000000 -0.0000000  0.1054381  0.0000000  0.9944259
 2  -0.0000000 -0.0000000 -0.9944259  0.0000000  0.1054381
 3  -0.0153676 -0.9326556  0.0000000  0.3604405 -0.0000000
 4   0.1201387  0.3561492  0.0000000  0.9266739 -0.0000000
 5  -0.9926382  0.0575436  0.0000000  0.1065749 -0.0000000
 occupations
 0.427 -0.004 -0.000 -0.005  0.000
-0.004  0.328 -0.000  0.019  0.000
-0.000 -0.000  0.319  0.000 -0.012
-0.005  0.019  0.000  0.370 -0.000
 0.000  0.000 -0.012 -0.000  0.211
atom    6   spin  2
eigenvalues:  0.1560162 0.2419450 0.2422926 0.3203315 0.3662432
 eigenvectors
 1  -0.0000000 -0.0000000  0.1628582  0.0000000  0.9866495
 2  -0.0000000 -0.0000000 -0.9866495  0.0000000  0.1628582
 3  -0.0272955 -0.9570422  0.0000000  0.2886611 -0.0000000
 4   0.1382332  0.2823806  0.0000000  0.9492907 -0.0000000
 5  -0.9900235  0.0658139  0.0000000  0.1245873 -0.0000000
 occupations
 0.365 -0.005 -0.000 -0.005  0.000
-0.005  0.249 -0.000  0.022  0.000
-0.000 -0.000  0.240  0.000 -0.014
-0.005  0.022  0.000  0.315 -0.000
 0.000  0.000 -0.014 -0.000  0.158
atom    7   Tr[ns(na)]=   2.9580802
atom    7   spin  1
eigenvalues:  0.2073916 0.3140852 0.3213732 0.3777241 0.4200679
 eigenvectors
 1  -0.0000000 -0.0000000  0.1420554  0.0000000  0.9898587
 2  -0.0328196 -0.9852014 -0.0000000  0.1682290  0.0000000
 3  -0.0000000  0.0000000 -0.9898587 -0.0000000  0.1420554
 4  -0.0390437  0.1694550  0.0000000  0.9847642 -0.0000000
 5  -0.9986984  0.0257512  0.0000000 -0.0440273 -0.0000000
 occupations
 0.420 -0.003 -0.000  0.002  0.000
-0.003  0.316 -0.000  0.010  0.000
-0.000 -0.000  0.319  0.000 -0.016
 0.002  0.010  0.000  0.376 -0.000
 0.000  0.000 -0.016 -0.000  0.210
atom    7   spin  2
eigenvalues:  0.1534106 0.2384079 0.2446300 0.3213910 0.3595986
 eigenvectors
 1  -0.0000000 -0.0000000  0.1922929  0.0000000  0.9813376
 2  -0.0354050 -0.9832460 -0.0000000  0.1788124  0.0000000
 3   0.0000000  0.0000000 -0.9813376 -0.0000000  0.1922929
 4   0.0058479  0.1787177  0.0000000  0.9838830 -0.0000000
 5  -0.9993559  0.0358800  0.0000000 -0.0005775 -0.0000000
 occupations
 0.359 -0.004 -0.000  0.001  0.000
-0.004  0.241 -0.000  0.015  0.000
-0.000 -0.000  0.241  0.000 -0.017
 0.001  0.015  0.000  0.319 -0.000
 0.000  0.000 -0.017 -0.000  0.157
atom    8   Tr[ns(na)]=   2.9956271
atom    8   spin  1
eigenvalues:  0.2022032 0.3258309 0.3314859 0.3742271 0.4295576
 eigenvectors
 1  -0.0000000 -0.0000000  0.1082865  0.0000000  0.9941197
 2  -0.0306998 -0.9543038 -0.0000000  0.2972571  0.0000000
 3   0.0000000  0.0000000 -0.9941197 -0.0000000  0.1082865
 4  -0.0002678  0.2974051  0.0000000  0.9547514 -0.0000000
 5  -0.9995286  0.0292310  0.0000000 -0.0093859 -0.0000000
 occupations
 0.429 -0.003 -0.000  0.001  0.000
-0.003  0.330 -0.000  0.014  0.000
-0.000 -0.000  0.330  0.000 -0.014
 0.001  0.014  0.000  0.370 -0.000
 0.000  0.000 -0.014 -0.000  0.204
atom    8   spin  2
eigenvalues:  0.1505686 0.2457252 0.2505145 0.3182055 0.3673087
 eigenvectors
 1  -0.0000000 -0.0000000  0.1550133  0.0000000  0.9879124
 2  -0.0334669 -0.9685275 -0.0000000  0.2466463  0.0000000
 3   0.0000000  0.0000000 -0.9879124 -0.0000000  0.1550133
 4   0.0231984  0.2459652  0.0000000  0.9690010 -0.0000000
 5  -0.9991706  0.0381513  0.0000000  0.0142366 -0.0000000
 occupations
 0.367 -0.004 -0.000 -0.000  0.000
-0.004  0.250 -0.000  0.017  0.000
-0.000 -0.000  0.248  0.000 -0.015
-0.000  0.017  0.000  0.314 -0.000
 0.000  0.000 -0.015 -0.000  0.153
atom    9   Tr[ns(na)]=   2.9819644
atom    9   spin  1
eigenvalues:  0.2088302 0.3197575 0.3217491 0.3780365 0.4252589
 eigenvectors
 1  -0.0075624 -0.0067633  0.1135253 -0.0069195  0.9934592
 2   0.0077438  0.0381011  0.9924743  0.0271201 -0.1129056
 3  -0.0159380 -0.9538891  0.0277151  0.2983522 -0.0077043
 4  -0.0986838 -0.2942612  0.0364810 -0.9498198 -0.0135388
 5  -0.9949323  0.0448152  0.0027994  0.0896935 -0.0069637
 occupations
 0.425 -0.003 -0.000 -0.004  0.002
-0.003  0.327 -0.001  0.016  0.001
-0.000 -0.001  0.318 -0.002 -0.013
-0.004  0.016 -0.002  0.373  0.001
 0.002  0.001 -0.013  0.001  0.210
atom    9   spin  2
eigenvalues:  0.1555410 0.2426685 0.2440058 0.3217666 0.3643503
 eigenvectors
 1  -0.0055866 -0.0064337  0.1658279 -0.0038969  0.9861102
 2   0.0097173  0.1775976  0.9703274 -0.0238269 -0.1620543
 3  -0.0234734 -0.9505489  0.1746391  0.2533827 -0.0347013
 4  -0.1218468 -0.2487377  0.0215336 -0.9605855 -0.0097303
 5  -0.9922080  0.0548093  0.0017933  0.1117576 -0.0051235
 occupations
 0.364 -0.004 -0.000 -0.004  0.001
-0.004  0.249 -0.001  0.019  0.001
-0.000 -0.001  0.240 -0.001 -0.014
-0.004  0.019 -0.001  0.317  0.001
 0.001  0.001 -0.014  0.001  0.158
atom   10   Tr[ns(na)]=   2.9915464
atom   10   spin  1
eigenvalues:  0.2070456 0.3232912 0.3245941 0.3768140 0.4281007
 eigenvectors
 1  -0.0063579 -0.0028644  0.1047822 -0.0059339  0.9944530
 2   0.0067257  0.0790818  0.9913777  0.0046776 -0.1041595
 3  -0.0141593 -0.9399291  0.0726130  0.3331495 -0.0084610
 4  -0.0935339 -0.3290300  0.0302265 -0.9391327 -0.0103344
 5  -0.9954724  0.0448373  0.0021559  0.0835712 -0.0059638
 occupations
 0.428 -0.003 -0.000 -0.004  0.001
-0.003  0.330 -0.001  0.017  0.000
-0.000 -0.001  0.322 -0.001 -0.012
-0.004  0.017 -0.001  0.371  0.001
 0.001  0.000 -0.012  0.001  0.208
atom   10   spin  2
eigenvalues:  0.1542169 0.2445746 0.2458092 0.3205022 0.3665979
 eigenvectors
 1  -0.0047809 -0.0022626  0.1562307 -0.0038133  0.9876991
 2   0.0088149  0.1853606  0.9700461 -0.0336791 -0.1531011
 3  -0.0233487 -0.9447134  0.1852112  0.2678351 -0.0305391
 4  -0.1143462 -0.2649464  0.0172338 -0.9572742 -0.0075822
 5  -0.9931159  0.0543725  0.0015193  0.1036419 -0.0045227
 occupations
 0.366 -0.004 -0.000 -0.004  0.001
-0.004  0.251 -0.001  0.020  0.000
-0.000 -0.001  0.242 -0.001 -0.014
-0.004  0.020 -0.001  0.316  0.001
 0.001  0.000 -0.014  0.001  0.156
atom   11   Tr[ns(na)]=   2.9819644
atom   11   spin  1
eigenvalues:  0.2088302 0.3197575 0.3217491 0.3780365 0.4252589
 eigenvectors
 1   0.0075624  0.0067633  0.1135253  0.0069195  0.9934592
 2   0.0077438  0.0381011 -0.9924743  0.0271201  0.1129056
 3   0.0159380  0.9538891  0.0277151 -0.2983522 -0.0077043
 4  -0.0986838 -0.2942612 -0.0364810 -0.9498198  0.0135388
 5  -0.9949323  0.0448152 -0.0027994  0.0896935  0.0069637
 occupations
 0.425 -0.003  0.000 -0.004 -0.002
-0.003  0.327  0.001  0.016 -0.001
 0.000  0.001  0.318  0.002 -0.013
-0.004  0.016  0.002  0.373 -0.001
-0.002 -0.001 -0.013 -0.001  0.210
atom   11   spin  2
eigenvalues:  0.1555410 0.2426685 0.2440058 0.3217666 0.3643503
 eigenvectors
 1   0.0055866  0.0064337  0.1658279  0.0038969  0.9861102
 2   0.0097173  0.1775976 -0.9703274 -0.0238269  0.1620543
 3   0.0234734  0.9505489  0.1746391 -0.2533827 -0.0347013
 4  -0.1218468 -0.2487377 -0.0215336 -0.9605855  0.0097303
 5  -0.9922080  0.0548093 -0.0017933  0.1117576  0.0051235
 occupations
 0.364 -0.004  0.000 -0.004 -0.001
-0.004  0.249  0.001  0.019 -0.001
 0.000  0.001  0.240  0.001 -0.014
-0.004  0.019  0.001  0.317 -0.001
-0.001 -0.001 -0.014 -0.001  0.158
atom   12   Tr[ns(na)]=   2.9915464
atom   12   spin  1
eigenvalues:  0.2070456 0.3232912 0.3245941 0.3768140 0.4281007
 eigenvectors
 1   0.0063579  0.0028644  0.1047822  0.0059339  0.9944530
 2   0.0067257  0.0790818 -0.9913777  0.0046776  0.1041595
 3   0.0141593  0.9399291  0.0726130 -0.3331495 -0.0084610
 4  -0.0935339 -0.3290300 -0.0302265 -0.9391327  0.0103344
 5  -0.9954724  0.0448373 -0.0021559  0.0835712  0.0059638
 occupations
 0.428 -0.003  0.000 -0.004 -0.001
-0.003  0.330  0.001  0.017 -0.000
 0.000  0.001  0.322  0.001 -0.012
-0.004  0.017  0.001  0.371 -0.001
-0.001 -0.000 -0.012 -0.001  0.208
atom   12   spin  2
eigenvalues:  0.1542169 0.2445746 0.2458092 0.3205022 0.3665979
 eigenvectors
 1   0.0047809  0.0022626  0.1562307  0.0038133  0.9876991
 2   0.0088149  0.1853606 -0.9700461 -0.0336791  0.1531011
 3   0.0233487  0.9447134  0.1852112 -0.2678351 -0.0305391
 4  -0.1143462 -0.2649464 -0.0172338 -0.9572742  0.0075822
 5  -0.9931159  0.0543725 -0.0015193  0.1036419  0.0045227
 occupations
 0.366 -0.004  0.000 -0.004 -0.001
-0.004  0.251  0.001  0.020 -0.000
 0.000  0.001  0.242  0.001 -0.014
-0.004  0.020  0.001  0.316 -0.001
-0.001 -0.000 -0.014 -0.001  0.156
atom   13   Tr[ns(na)]=   3.1500991
atom   13   spin  1
eigenvalues:  0.3111008 0.3363813 0.3429562 0.3505948 0.4677612
 eigenvectors
 1  -0.0000000 -0.0000000 -0.9515047  0.0000000 -0.3076341
 2   0.3604016  0.9292260  0.0000000  0.0815455 -0.0000000
 3  -0.0000000  0.0000000 -0.3076341  0.0000000  0.9515047
 4   0.9316617 -0.3628970 -0.0000000  0.0176711  0.0000000
 5   0.0460131  0.0696041 -0.0000000 -0.9965129  0.0000000
 occupations
 0.349 -0.004 -0.000 -0.006  0.000
-0.004  0.339 -0.000 -0.009  0.000
-0.000 -0.000  0.314  0.000 -0.009
-0.006 -0.009  0.000  0.467 -0.000
 0.000  0.000 -0.009 -0.000  0.340
atom   13   spin  2
eigenvalues:  0.2072136 0.2251570 0.2314962 0.2864752 0.3909627
 eigenvectors
 1  -0.0000000 -0.0000000 -0.9854955  0.0000000  0.1697017
 2  -0.0110452 -0.9931913  0.0000000 -0.1159698  0.0000000
 3  -0.0000000  0.0000000  0.1697017  0.0000000  0.9854955
 4  -0.9983912  0.0174041  0.0000000 -0.0539635 -0.0000000
 5   0.0556144  0.1151872 -0.0000000 -0.9917857  0.0000000
 occupations
 0.287 -0.000 -0.000 -0.006  0.000
-0.000  0.227 -0.000 -0.019  0.000
-0.000 -0.000  0.208  0.000  0.004
-0.006 -0.019  0.000  0.388 -0.000
 0.000  0.000  0.004 -0.000  0.231
atom   14   Tr[ns(na)]=   3.2010636
atom   14   spin  1
eigenvalues:  0.2271699 0.3589048 0.3612608 0.3871042 0.4528697
 eigenvectors
 1  -0.0000000 -0.0000000 -0.0647184  0.0000000  0.9979036
 2  -0.0130434 -0.8160353 -0.0000000 -0.5778548  0.0000000
 3   0.0000000  0.0000000  0.9979036 -0.0000000  0.0647184
 4  -0.0876022  0.5766145 -0.0000000 -0.8123063  0.0000000
 5   0.9960701  0.0400261 -0.0000000 -0.0790075  0.0000000
 occupations
 0.452  0.002 -0.000 -0.005  0.000
 0.002  0.368 -0.000 -0.014  0.000
-0.000 -0.000  0.361  0.000  0.009
-0.005 -0.014  0.000  0.378 -0.000
 0.000  0.000  0.009 -0.000  0.228
atom   14   spin  2
eigenvalues:  0.1659414 0.2695323 0.2703980 0.3243073 0.3835754
 eigenvectors
 1  -0.0000000 -0.0000000 -0.1161648  0.0000000  0.9932300
 2  -0.0000000  0.0000000  0.9932300  0.0000000  0.1161648
 3  -0.0155227  0.9391574 -0.0000000  0.3431363 -0.0000000
 4  -0.1076482  0.3396132 -0.0000000 -0.9343847  0.0000000
 5   0.9940679  0.0514422 -0.0000000 -0.0958269  0.0000000
 occupations
 0.383  0.004 -0.000 -0.005  0.000
 0.004  0.277 -0.000 -0.018  0.000
-0.000 -0.000  0.268  0.000  0.012
-0.005 -0.018  0.000  0.319 -0.000
 0.000  0.000  0.012 -0.000  0.167
atom   15   Tr[ns(na)]=   2.9902186
atom   15   spin  1
eigenvalues:  0.2184907 0.3114411 0.3238667 0.3808189 0.4249703
 eigenvectors
 1   0.0196159 -0.0212822 -0.0810296  0.0316399  0.9957888
 2   0.0217451  0.0352892  0.9886816  0.1219698  0.0769017
 3   0.0056262  0.9446934 -0.0735676  0.3195232  0.0039405
 4   0.2188536 -0.3186537 -0.1025744  0.9152510 -0.0485491
 5  -0.9753019 -0.0656962 -0.0030279  0.2105774  0.0108710
 occupations
 0.423  0.003 -0.001 -0.009 -0.004
 0.003  0.330  0.001 -0.018  0.003
-0.001  0.001  0.312 -0.007  0.008
-0.009 -0.018 -0.007  0.376 -0.006
-0.004  0.003  0.008 -0.006  0.219
atom   15   spin  2
eigenvalues:  0.1607058 0.2366300 0.2459308 0.3232614 0.3641030
 eigenvectors
 1   0.0141518 -0.0208527 -0.1439624  0.0174963  0.9891075
 2   0.0148730 -0.0042145  0.9870504  0.0728554  0.1420726
 3   0.0121583 -0.9614235  0.0178020 -0.2739177 -0.0130067
 4  -0.2282782  0.2639935  0.0684206 -0.9339530  0.0353109
 5  -0.9733035 -0.0742944 -0.0028351  0.2169950  0.0081083
 occupations
 0.362  0.004 -0.001 -0.009 -0.003
 0.004  0.252  0.001 -0.021  0.002
-0.001  0.001  0.235 -0.005  0.011
-0.009 -0.021 -0.005  0.319 -0.004
-0.003  0.002  0.011 -0.004  0.162
atom   16   Tr[ns(na)]=   3.0146532
atom   16   spin  1
eigenvalues:  0.2113590 0.3237747 0.3304695 0.3769627 0.4319561
 eigenvectors
 1   0.0145262 -0.0036345 -0.0805970  0.0241448  0.9963418
 2   0.0176796  0.0399377  0.9906496  0.1034248  0.0775181
 3  -0.0106740 -0.9137888  0.0776205 -0.3983573  0.0127548
 4   0.1648917 -0.4002537 -0.0780083  0.8974984 -0.0319239
 5   0.9859884  0.0563815 -0.0026898 -0.1566157 -0.0105918
 occupations
 0.430  0.003 -0.001 -0.009 -0.003
 0.003  0.338  0.001 -0.018  0.001
-0.001  0.001  0.323 -0.004  0.009
-0.009 -0.018 -0.004  0.370 -0.004
-0.003  0.001  0.009 -0.004  0.212
atom   16   spin  2
eigenvalues:  0.1562032 0.2442691 0.2503031 0.3195900 0.3697658
 eigenvectors
 1   0.0111271 -0.0031531 -0.1349251  0.0161433  0.9906568
 2   0.0118735 -0.0213910  0.9897449  0.0433499  0.1338930
 3   0.0110464 -0.9517526 -0.0073877 -0.3065774  0.0008364
 4   0.1813358 -0.2988797 -0.0462871  0.9354377 -0.0245357
 5   0.9832245  0.0661091 -0.0018056 -0.1697844 -0.0083124
 occupations
 0.368  0.004 -0.001 -0.008 -0.002
 0.004  0.257  0.001 -0.021  0.001
-0.001  0.001  0.243 -0.003  0.012
-0.008 -0.021 -0.003  0.314 -0.003
-0.002  0.001  0.012 -0.003  0.158
atom   17   Tr[ns(na)]=   2.9902186
atom   17   spin  1
eigenvalues:  0.2184907 0.3114411 0.3238667 0.3808189 0.4249703
 eigenvectors
 1  -0.0196159  0.0212822 -0.0810296 -0.0316399  0.9957888
 2   0.0217451  0.0352892 -0.9886816  0.1219698 -0.0769017
 3  -0.0056262 -0.9446934 -0.0735676 -0.3195232  0.0039405
 4   0.2188536 -0.3186537  0.1025744  0.9152510  0.0485491
 5  -0.9753019 -0.0656962  0.0030279  0.2105774 -0.0108710
 occupations
 0.423  0.003  0.001 -0.009  0.004
 0.003  0.330 -0.001 -0.018 -0.003
 0.001 -0.001  0.312  0.007  0.008
-0.009 -0.018  0.007  0.376  0.006
 0.004 -0.003  0.008  0.006  0.219
atom   17   spin  2
eigenvalues:  0.1607058 0.2366300 0.2459308 0.3232614 0.3641030
 eigenvectors
 1  -0.0141518  0.0208527 -0.1439624 -0.0174963  0.9891075
 2   0.0148730 -0.0042145 -0.9870504  0.0728554 -0.1420726
 3  -0.0121583  0.9614235  0.0178020  0.2739177 -0.0130067
 4  -0.2282782  0.2639935 -0.0684206 -0.9339530 -0.0353109
 5  -0.9733035 -0.0742944  0.0028351  0.2169950 -0.0081083
 occupations
 0.362  0.004  0.001 -0.009  0.003
 0.004  0.252 -0.001 -0.021 -0.002
 0.001 -0.001  0.235  0.005  0.011
-0.009 -0.021  0.005  0.319  0.004
 0.003 -0.002  0.011  0.004  0.162
atom   18   Tr[ns(na)]=   3.0146532
atom   18   spin  1
eigenvalues:  0.2113590 0.3237747 0.3304695 0.3769627 0.4319561
 eigenvectors
 1  -0.0145262  0.0036345 -0.0805970 -0.0241448  0.9963418
 2   0.0176796  0.0399377 -0.9906496  0.1034248 -0.0775181
 3   0.0106740  0.9137888  0.0776205  0.3983573  0.0127548
 4   0.1648917 -0.4002537  0.0780083  0.8974984  0.0319239
 5   0.9859884  0.0563815  0.0026898 -0.1566157  0.0105918
 occupations
 0.430  0.003  0.001 -0.009  0.003
 0.003  0.338 -0.001 -0.018 -0.001
 0.001 -0.001  0.323  0.004  0.009
-0.009 -0.018  0.004  0.370  0.004
 0.003 -0.001  0.009  0.004  0.212
atom   18   spin  2
eigenvalues:  0.1562032 0.2442691 0.2503031 0.3195900 0.3697658
 eigenvectors
 1  -0.0111271  0.0031531 -0.1349251 -0.0161433  0.9906568
 2   0.0118735 -0.0213910 -0.9897449  0.0433499 -0.1338930
 3  -0.0110464  0.9517526 -0.0073877  0.3065774  0.0008364
 4   0.1813358 -0.2988797  0.0462871  0.9354377  0.0245357
 5   0.9832245  0.0661091  0.0018056 -0.1697844  0.0083124
 occupations
 0.368  0.004  0.001 -0.008  0.002
 0.004  0.257 -0.001 -0.021 -0.001
 0.001 -0.001  0.243  0.003  0.012
-0.008 -0.021  0.003  0.314  0.003
 0.002 -0.001  0.012  0.003  0.158
atom   19   Tr[ns(na)]=   3.0098558
atom   19   spin  1
eigenvalues:  0.2340679 0.3109953 0.3158014 0.3879024 0.4232151
 eigenvectors
 1   0.0104009 -0.0329812 -0.0422210  0.0173666  0.9983586
 2   0.0120593  0.1184591  0.9854145  0.1135307  0.0434864
 3   0.0033619 -0.9253681  0.1519545 -0.3467896 -0.0181462
 4  -0.2630635  0.3454001  0.0637233 -0.8979875  0.0324666
 5  -0.9646412 -0.0962924 -0.0049844  0.2452846  0.0023910
 occupations
 0.421  0.003 -0.001 -0.008 -0.002
 0.003  0.325  0.001 -0.025  0.003
-0.001  0.001  0.311 -0.005  0.003
-0.008 -0.025 -0.005  0.380 -0.003
-0.002  0.003  0.003 -0.003  0.234
atom   19   spin  2
eigenvalues:  0.1701359 0.2366680 0.2404792 0.3281688 0.3624218
 eigenvectors
 1   0.0064725 -0.0302994 -0.1215876  0.0080315  0.9920645
 2   0.0073091  0.1064293  0.9832354  0.0820217  0.1230443
 3   0.0193850 -0.9446552  0.1285686 -0.3010061 -0.0107837
 4  -0.2629394  0.2928104  0.0438988 -0.9179581  0.0234703
 5  -0.9645682 -0.0982011 -0.0027482  0.2448596  0.0009748
 occupations
 0.360  0.005 -0.001 -0.008 -0.001
 0.005  0.249  0.001 -0.027  0.003
-0.001  0.001  0.236 -0.004  0.008
-0.008 -0.027 -0.004  0.322 -0.002
-0.001  0.003  0.008 -0.002  0.171
atom   20   Tr[ns(na)]=   3.0574270
atom   20   spin  1
eigenvalues:  0.2213599 0.3296123 0.3325985 0.3806467 0.4369501
 eigenvectors
 1   0.0100337 -0.0050693 -0.0700406  0.0190098  0.9972996
 2  -0.0143657 -0.6830585 -0.5782394 -0.4445291 -0.0354640
 3   0.0096100 -0.5320559  0.8096287 -0.2405957  0.0586453
 4   0.1520834 -0.4951855 -0.0722149  0.8519413 -0.0253579
 5   0.9881656  0.0715071 -0.0044546 -0.1354335 -0.0073096
 occupations
 0.436  0.004 -0.001 -0.008 -0.002
 0.004  0.344  0.000 -0.022  0.001
-0.001  0.000  0.331 -0.004  0.008
-0.008 -0.022 -0.004  0.369 -0.003
-0.002  0.001  0.008 -0.003  0.222
atom   20   spin  2
eigenvalues:  0.1618547 0.2491559 0.2508010 0.3210038 0.3734441
 eigenvectors
 1   0.0068918 -0.0053711 -0.1283698  0.0113922  0.9916224
 2   0.0022939  0.3768963  0.8989827  0.1904421  0.1162148
 3   0.0208933 -0.8513365  0.4165331 -0.3138549  0.0527712
 4   0.1633992 -0.3568240 -0.0429311  0.9185676 -0.0191789
 5   0.9863120  0.0763090 -0.0029051 -0.1460503 -0.0051397
 occupations
 0.372  0.005 -0.001 -0.007 -0.001
 0.005  0.260  0.000 -0.024  0.001
-0.001  0.000  0.248 -0.003  0.011
-0.007 -0.024 -0.003  0.313 -0.002
-0.001  0.001  0.011 -0.002  0.163
atom   21   Tr[ns(na)]=   3.0098558
atom   21   spin  1
eigenvalues:  0.2340679 0.3109953 0.3158014 0.3879024 0.4232151
 eigenvectors
 1  -0.0104009  0.0329812 -0.0422210 -0.0173666  0.9983586
 2   0.0120593  0.1184591 -0.9854145  0.1135307 -0.0434864
 3  -0.0033619  0.9253681  0.1519545  0.3467896 -0.0181462
 4  -0.2630635  0.3454001 -0.0637233 -0.8979875 -0.0324666
 5  -0.9646412 -0.0962924  0.0049844  0.2452846 -0.0023910
 occupations
 0.421  0.003  0.001 -0.008  0.002
 0.003  0.325 -0.001 -0.025 -0.003
 0.001 -0.001  0.311  0.005  0.003
-0.008 -0.025  0.005  0.380  0.003
 0.002 -0.003  0.003  0.003  0.234
atom   21   spin  2
eigenvalues:  0.1701359 0.2366680 0.2404792 0.3281688 0.3624218
 eigenvectors
 1  -0.0064725  0.0302994 -0.1215876 -0.0080315  0.9920645
 2   0.0073091  0.1064293 -0.9832354  0.0820217 -0.1230443
 3  -0.0193850  0.9446552  0.1285686  0.3010061 -0.0107837
 4  -0.2629394  0.2928104 -0.0438988 -0.9179581 -0.0234703
 5  -0.9645682 -0.0982011  0.0027482  0.2448596 -0.0009748
 occupations
 0.360  0.005  0.001 -0.008  0.001
 0.005  0.249 -0.001 -0.027 -0.003
 0.001 -0.001  0.236  0.004  0.008
-0.008 -0.027  0.004  0.322  0.002
 0.001 -0.003  0.008  0.002  0.171
atom   22   Tr[ns(na)]=   3.0574270
atom   22   spin  1
eigenvalues:  0.2213599 0.3296123 0.3325985 0.3806467 0.4369501
 eigenvectors
 1  -0.0100337  0.0050693 -0.0700406 -0.0190098  0.9972996
 2   0.0143657  0.6830585 -0.5782394  0.4445291 -0.0354640
 3   0.0096100 -0.5320559 -0.8096287 -0.2405957 -0.0586453
 4   0.1520834 -0.4951855  0.0722149  0.8519413  0.0253579
 5   0.9881656  0.0715071  0.0044546 -0.1354335  0.0073096
 occupations
 0.436  0.004  0.001 -0.008  0.002
 0.004  0.344 -0.000 -0.022 -0.001
 0.001 -0.000  0.331  0.004  0.008
-0.008 -0.022  0.004  0.369  0.003
 0.002 -0.001  0.008  0.003  0.222
atom   22   spin  2
eigenvalues:  0.1618547 0.2491559 0.2508010 0.3210038 0.3734441
 eigenvectors
 1  -0.0068918  0.0053711 -0.1283698 -0.0113922  0.9916224
 2   0.0022939  0.3768963 -0.8989827  0.1904421 -0.1162148
 3  -0.0208933  0.8513365  0.4165331  0.3138549  0.0527712
 4   0.1633992 -0.3568240  0.0429311  0.9185676  0.0191789
 5   0.9863120  0.0763090  0.0029051 -0.1460503  0.0051397
 occupations
 0.372  0.005  0.001 -0.007  0.001
 0.005  0.260 -0.000 -0.024 -0.001
 0.001 -0.000  0.248  0.003  0.011
-0.007 -0.024  0.003  0.313  0.002
 0.001 -0.001  0.011  0.002  0.163
atom   23   Tr[ns(na)]=   2.9864840
atom   23   spin  1
eigenvalues:  0.2149580 0.3158193 0.3222338 0.3774701 0.4264776
 eigenvectors
 1  -0.0000000 -0.0000000 -0.0841521  0.0000000  0.9964529
 2   0.0000000  0.0000000  0.9964529  0.0000000  0.0841521
 3  -0.0042635 -0.9247721  0.0000000 -0.3804974  0.0000000
 4  -0.1851760  0.3746503 -0.0000000 -0.9084861  0.0000000
 5  -0.9826961 -0.0665857  0.0000000  0.1728429 -0.0000000
 occupations
 0.425  0.003 -0.000 -0.008  0.000
 0.003  0.330 -0.000 -0.020  0.000
-0.000 -0.000  0.315  0.000  0.008
-0.008 -0.020  0.000  0.371 -0.000
 0.000  0.000  0.008 -0.000  0.216
atom   23   spin  2
eigenvalues:  0.1589650 0.2393702 0.2447788 0.3208820 0.3655293
 eigenvectors
 1  -0.0000000 -0.0000000 -0.1443635  0.0000000  0.9895247
 2  -0.0000000  0.0000000  0.9895247  0.0000000  0.1443635
 3  -0.0153124  0.9534564 -0.0000000  0.3011419 -0.0000000
 4   0.1972350 -0.2923793  0.0000000  0.9357418 -0.0000000
 5  -0.9802366 -0.0737241  0.0000000  0.1835780 -0.0000000
 occupations
 0.364  0.004 -0.000 -0.008  0.000
 0.004  0.252 -0.000 -0.022  0.000
-0.000 -0.000  0.238  0.000  0.011
-0.008 -0.022  0.000  0.315 -0.000
 0.000  0.000  0.011 -0.000  0.161
atom   24   Tr[ns(na)]=   2.9943110
atom   24   spin  1
eigenvalues:  0.2126588 0.3195759 0.3249008 0.3756588 0.4291639
 eigenvectors
 1  -0.0000000 -0.0000000 -0.0860242  0.0000000  0.9962931
 2   0.0000000  0.0000000  0.9962931  0.0000000  0.0860242
 3  -0.0088579 -0.9098062  0.0000000 -0.4149389  0.0000000
 4  -0.1725069  0.4101242 -0.0000000 -0.8955666  0.0000000
 5  -0.9849685 -0.0636470  0.0000000  0.1605807 -0.0000000
 occupations
 0.428  0.003 -0.000 -0.009  0.000
 0.003  0.334 -0.000 -0.020  0.000
-0.000 -0.000  0.319  0.000  0.009
-0.009 -0.020  0.000  0.368 -0.000
 0.000  0.000  0.009 -0.000  0.213
atom   24   spin  2
eigenvalues:  0.1573949 0.2414973 0.2466406 0.3191106 0.3677093
 eigenvectors
 1  -0.0000000 -0.0000000 -0.1444682  0.0000000  0.9895094
 2  -0.0000000  0.0000000  0.9895094  0.0000000  0.1444682
 3  -0.0134874  0.9489875 -0.0000000  0.3150251 -0.0000000
 4   0.1857353 -0.3071930  0.0000000  0.9333460 -0.0000000
 5  -0.9825072 -0.0710997  0.0000000  0.1721173 -0.0000000
 occupations
 0.366  0.004 -0.000 -0.008  0.000
 0.004  0.254 -0.000 -0.022  0.000
-0.000 -0.000  0.240  0.000  0.012
-0.008 -0.022  0.000  0.313 -0.000
 0.000  0.000  0.012 -0.000  0.159
nsum =  72.2596795
 exit write_ns

     negative rho (up, down):  0.912E-02 0.100E-01

     total cpu time spent up to now is     87.97 secs

     total energy              =   -5389.41620912 Ry
     Harris-Foulkes estimate   =   -5397.65199804 Ry
     estimated scf accuracy    <      52.21338745 Ry

     total magnetization       =     0.00 Bohr mag/cell
     absolute magnetization    =    11.60 Bohr mag/cell

     iteration #  2     ecut=    30.00 Ry     beta=0.30
     Davidson diagonalization with overlap
     ethr =  7.77E-03,  avg # of iterations =  1.0

     negative rho (up, down):  0.103E-01 0.115E-01

     total cpu time spent up to now is    139.35 secs

     total energy              =   -5388.90083125 Ry
     Harris-Foulkes estimate   =   -5391.78519606 Ry
     estimated scf accuracy    <      31.04831001 Ry

     total magnetization       =     0.64 Bohr mag/cell
     absolute magnetization    =     6.01 Bohr mag/cell

     iteration #  3     ecut=    30.00 Ry     beta=0.30
     Davidson diagonalization with overlap
     ethr =  4.62E-03,  avg # of iterations =  1.7

     negative rho (up, down):  0.116E-01 0.132E-01

     total cpu time spent up to now is    194.36 secs

     total energy              =   -5389.55489445 Ry
     Harris-Foulkes estimate   =   -5390.52695273 Ry
     estimated scf accuracy    <       5.64166227 Ry

     total magnetization       =    -0.00 Bohr mag/cell
     absolute magnetization    =     6.09 Bohr mag/cell

     iteration #  4     ecut=    30.00 Ry     beta=0.30
     Davidson diagonalization with overlap
     ethr =  8.40E-04,  avg # of iterations =  3.4

     negative rho (up, down):  0.102E-01 0.117E-01

     total cpu time spent up to now is    273.60 secs

     total energy              =   -5389.96104172 Ry
     Harris-Foulkes estimate   =   -5390.43107773 Ry
     estimated scf accuracy    <       3.64304748 Ry

     total magnetization       =     0.00 Bohr mag/cell
     absolute magnetization    =     4.67 Bohr mag/cell

     iteration #  5     ecut=    30.00 Ry     beta=0.30
     Davidson diagonalization with overlap
     ethr =  5.42E-04,  avg # of iterations =  3.2

     negative rho (up, down):  0.109E-01 0.126E-01

     total cpu time spent up to now is    344.36 secs

     total energy              =   -5390.14949007 Ry
     Harris-Foulkes estimate   =   -5390.53785243 Ry
     estimated scf accuracy    <       2.93326300 Ry

     total magnetization       =     0.24 Bohr mag/cell
     absolute magnetization    =     4.53 Bohr mag/cell

     iteration #  6     ecut=    30.00 Ry     beta=0.30
     Davidson diagonalization with overlap
     ethr =  4.36E-04,  avg # of iterations =  2.4

     negative rho (up, down):  0.109E-01 0.128E-01

     total cpu time spent up to now is    404.44 secs

     total energy              =   -5390.19884650 Ry
     Harris-Foulkes estimate   =   -5390.32316969 Ry
     estimated scf accuracy    <       2.02792980 Ry

     total magnetization       =     0.48 Bohr mag/cell
     absolute magnetization    =     4.69 Bohr mag/cell

     iteration #  7     ecut=    30.00 Ry     beta=0.30
     Davidson diagonalization with overlap
     ethr =  3.02E-04,  avg # of iterations =  3.2

     negative rho (up, down):  0.110E-01 0.130E-01

     total cpu time spent up to now is    467.98 secs

     total energy              =   -5390.19513984 Ry
     Harris-Foulkes estimate   =   -5390.24745657 Ry
     estimated scf accuracy    <       0.85597871 Ry

     total magnetization       =     0.12 Bohr mag/cell
     absolute magnetization    =     4.16 Bohr mag/cell

     iteration #  8     ecut=    30.00 Ry     beta=0.30
     Davidson diagonalization with overlap
     ethr =  1.27E-04,  avg # of iterations =  8.3

     negative rho (up, down):  0.111E-01 0.128E-01

     total cpu time spent up to now is    559.99 secs

     total energy              =   -5390.19592637 Ry
     Harris-Foulkes estimate   =   -5390.21219036 Ry
     estimated scf accuracy    <       0.25255440 Ry

     total magnetization       =     0.00 Bohr mag/cell
     absolute magnetization    =     3.33 Bohr mag/cell

     iteration #  9     ecut=    30.00 Ry     beta=0.30
     Davidson diagonalization with overlap
     c_bands:  3 eigenvalues not converged
     ethr =  3.76E-05,  avg # of iterations = 10.2

     negative rho (up, down):  0.114E-01 0.123E-01

     total cpu time spent up to now is    666.10 secs

     total energy              =   -5390.19981672 Ry
     Harris-Foulkes estimate   =   -5390.20400631 Ry
     estimated scf accuracy    <       0.08800138 Ry

     total magnetization       =     0.00 Bohr mag/cell
     absolute magnetization    =     2.69 Bohr mag/cell

     iteration # 10     ecut=    30.00 Ry     beta=0.30
     Davidson diagonalization with overlap
     ethr =  1.31E-05,  avg # of iterations =  7.6

     negative rho (up, down):  0.116E-01 0.122E-01

     total cpu time spent up to now is    762.49 secs

     total energy              =   -5390.20615380 Ry
     Harris-Foulkes estimate   =   -5390.20884067 Ry
     estimated scf accuracy    <       0.05297677 Ry

     total magnetization       =     0.00 Bohr mag/cell
     absolute magnetization    =     1.89 Bohr mag/cell

     iteration # 11     ecut=    30.00 Ry     beta=0.30
     Davidson diagonalization with overlap
     ethr =  7.88E-06,  avg # of iterations =  2.7

     negative rho (up, down):  0.118E-01 0.121E-01

     total cpu time spent up to now is    823.46 secs

     total energy              =   -5390.20546737 Ry
     Harris-Foulkes estimate   =   -5390.20869807 Ry
     estimated scf accuracy    <       0.02566952 Ry

     total magnetization       =     0.00 Bohr mag/cell
     absolute magnetization    =     1.41 Bohr mag/cell

     iteration # 12     ecut=    30.00 Ry     beta=0.30
     Davidson diagonalization with overlap
     ethr =  3.82E-06,  avg # of iterations =  6.7

     negative rho (up, down):  0.118E-01 0.120E-01

     total cpu time spent up to now is    914.27 secs

     total energy              =   -5390.20661330 Ry
     Harris-Foulkes estimate   =   -5390.20734089 Ry
     estimated scf accuracy    <       0.00874448 Ry

     total magnetization       =     0.00 Bohr mag/cell
     absolute magnetization    =     0.86 Bohr mag/cell

     iteration # 13     ecut=    30.00 Ry     beta=0.30
     Davidson diagonalization with overlap
     ethr =  1.30E-06,  avg # of iterations =  4.1

     negative rho (up, down):  0.119E-01 0.120E-01

     total cpu time spent up to now is    984.18 secs

     total energy              =   -5390.20651933 Ry
     Harris-Foulkes estimate   =   -5390.20731712 Ry
     estimated scf accuracy    <       0.00376011 Ry

     total magnetization       =     0.00 Bohr mag/cell
     absolute magnetization    =     0.60 Bohr mag/cell

     iteration # 14     ecut=    30.00 Ry     beta=0.30
     Davidson diagonalization with overlap
     ethr =  5.60E-07,  avg # of iterations =  6.8

     negative rho (up, down):  0.119E-01 0.120E-01

     total cpu time spent up to now is   1077.97 secs

     total energy              =   -5390.20707501 Ry
     Harris-Foulkes estimate   =   -5390.20716585 Ry
     estimated scf accuracy    <       0.00104247 Ry

     total magnetization       =     0.00 Bohr mag/cell
     absolute magnetization    =     0.27 Bohr mag/cell

     iteration # 15     ecut=    30.00 Ry     beta=0.30
     Davidson diagonalization with overlap
     ethr =  1.55E-07,  avg # of iterations =  2.3

     negative rho (up, down):  0.119E-01 0.119E-01

     total cpu time spent up to now is   1138.28 secs

     total energy              =   -5390.20710386 Ry
     Harris-Foulkes estimate   =   -5390.20714870 Ry
     estimated scf accuracy    <       0.00041568 Ry

[...]
     0.6404   0.6484   0.6892   0.7048   0.7240   0.7332   0.7655   0.7685
     0.8012   0.9486   1.0016   1.0588   1.1050   1.1601   1.2068   1.2620
     1.2701   1.2839   1.3038   1.3162   1.3346   1.3824   1.3909   1.3943
     1.4193   1.4796   1.4850   1.5002   1.5130   1.5131   1.5256   1.5633
     1.5635   1.5754   1.5908   1.6242   1.6250   1.6525   1.6596   1.6673
     1.6802   1.6960   1.7168   1.8997   1.9731   1.9805   2.0725   2.1345
     2.1587   2.1962   2.2018   2.2042   2.2632   2.2941   2.2993   2.3441
     2.3571   2.3585   2.3639   2.3838   2.4202   2.4276   2.4457   2.4531
     2.4655   2.4766   2.4939   2.5099   2.5194   2.5318   2.5328   2.5586
     2.5668   2.6028   2.6320   2.6334   2.6829   2.7009   2.7102   2.7311
     2.7559   2.7693   2.7992   2.8197   2.8360   2.8375   2.8818   2.9152
     2.9605   2.9893   2.9913   2.9973   3.0037   3.0310   3.0444   3.0910
     3.1012   3.1328   3.1597   3.2116   3.2162   3.2253   3.2770   3.3755
     3.3867   3.4276   3.4717   3.5503   3.5631   3.6058   3.6152   3.6437
     3.6943   3.7072   3.7143   3.7914   3.8029   3.8127   3.8458   3.8578
     3.8761   3.8973   3.9075   3.9543   3.9801   4.0159   4.0379   4.0803
     4.0986   4.1821   4.2172   4.2275   4.2832   4.3068   4.3847   4.3998
     5.5991   5.9692   5.9702   6.5463   6.5861   6.6754   6.7528   6.8027
     6.8188   6.8411   6.8554   6.9043   7.0724   7.0925   7.1042   7.1283
     7.1774   7.4641   7.4973   7.5749   7.5995   7.6030   7.6327   7.6356
     7.6660   7.7095   7.7144   7.7488   7.7672   7.8110   7.8223   7.8413
     7.8448   7.8730   7.8766   7.8802   7.8874   7.9297   7.9341   7.9381
     7.9494   7.9654   7.9660   8.0062   8.0386   8.0449   8.0825   8.0933
     8.1116   8.1183   8.1260   8.1265   8.1809   8.1946   8.2102   8.2312
     8.2576   8.2659   8.2751   8.3162   8.3205   8.3534   8.3696   8.4389
     8.4561   8.4736   8.4945

          k =-0.5000-0.5390-0.6582 ( 20080 PWs)   bands (ev):

   -61.7459 -60.1792 -60.0386 -60.0372 -60.0263 -60.0251 -59.8788 -59.8540
   -59.8532 -59.8461 -59.8451 -59.8360 -59.7864 -59.7851 -59.7698 -59.7474
   -59.7406 -59.7387 -59.6904 -59.6893 -59.6830 -59.6743 -59.6724 -59.6351
   -36.0460 -35.4232 -35.4062 -34.1456 -34.1040 -34.0149 -33.9999 -33.9995
   -33.9829 -33.9824 -33.9591 -33.9526 -33.9338 -33.9297 -33.9113 -33.9031
   -33.8791 -33.8770 -33.8621 -33.8058 -33.8042 -33.8001 -33.7994 -33.7900
   -33.7867 -33.7757 -33.7731 -33.7699 -33.7583 -33.7562 -33.7439 -33.7410
   -33.7405 -33.7191 -33.7159 -33.7149 -33.7129 -33.7081 -33.6991 -33.6921
   -33.6915 -33.6822 -33.6814 -33.6770 -33.6762 -33.6661 -33.6589 -33.6556
   -33.6448 -33.6431 -33.6402 -33.6379 -33.6312 -33.6272 -33.6212 -33.6149
   -33.6118 -33.5973 -33.5959 -33.5936 -33.5787 -33.5734 -33.5689 -33.5606
   -33.5378 -33.5339 -33.5332 -33.5226 -33.5045 -33.5043 -33.4824 -33.4708
   -16.4532 -13.7507 -13.4390 -13.3085 -13.1240 -13.1099 -13.0396 -13.0040
   -12.9856 -12.9625 -12.7843 -12.7713 -12.4433 -12.3710 -12.2893 -12.2786
   -12.2760 -12.2583 -12.1951 -12.1471 -12.1375 -12.1172 -12.1163 -12.1150
   -12.0694 -12.0529 -12.0368 -12.0250 -12.0134 -11.9718 -11.9585 -11.9509
   -11.9332 -11.9133 -11.8938 -11.8892 -11.8266 -11.8017 -11.8015 -11.7898
   -11.7567 -11.7448 -11.6498 -11.6379 -11.6160 -11.6004 -11.5920 -11.5840
   -11.5711 -11.5576 -11.5103 -11.4989 -11.4922 -11.4658 -11.4339 -11.4333
   -11.4286 -11.4119 -11.3867 -11.3683  -2.6187  -1.9175  -1.8933  -0.9456
    -0.9116  -0.8115  -0.5377  -0.5148  -0.4513  -0.3867  -0.3519  -0.3134
    -0.2825  -0.2478  -0.2351  -0.2291  -0.2070  -0.1732  -0.1608  -0.1493
    -0.0781  -0.0321  -0.0196  -0.0122   0.0327   0.0794   0.0988   0.1186
     0.1267   0.1448   0.1917   0.2552   0.2864   0.3177   0.3393   0.4366
     0.5002   0.5125   0.5200   0.6047   0.6965   0.7081   0.7519   0.7651
     0.7874   0.7943   0.8119   0.8412   0.8647   0.8831   0.9099   0.9285
     0.9294   0.9485   0.9637   0.9849   1.0266   1.0398   1.0689   1.0815
     1.1022   1.1188   1.1382   1.1404   1.1720   1.1928   1.1973   1.2215
     1.2324   1.2774   1.3277   1.3342   1.3641   1.4029   1.4210   1.4527
     1.4729   1.4935   1.4970   1.6577   1.6735   1.6829   1.7244   1.7278
     1.7544   1.7927   1.8085   1.8091   1.8250   1.8708   1.8988   1.9262
     1.9460   1.9477   2.0110   2.1196   2.1304   2.2013   2.2542   2.2574
     2.2673   2.2802   2.3068   2.3741   2.4027   2.4213   2.4264   2.4746
     2.4838   2.5043   2.5175   2.5249   2.5733   2.5746   2.5842   2.6433
     2.6439   2.6471   2.7121   2.7152   2.7304   2.7581   2.7607   2.7827
     2.8019   2.8161   2.8206   2.8798   2.8801   2.8916   2.9233   2.9408
     2.9566   2.9682   3.0655   3.0713   3.0896   3.1452   3.1563   3.1859
     3.2005   3.2162   3.2402   3.2721   3.2758   3.3438   3.4726   3.4984
     3.5326   3.5449   3.5863   3.5962   3.6186   3.6297   3.6483   3.6663
     3.6871   3.7070   3.7157   3.7624   3.8067   3.8078   3.8304   3.8541
     3.8666   3.9032   3.9039   3.9283   3.9644   3.9768   3.9847   4.0170
     4.0365   4.0372   4.0491   4.0955   4.1051   4.1149   4.1601   4.1671
     5.6028   5.9736   5.9809   6.5545   6.5946   6.6866   6.7579   6.8053
     6.8268   6.8436   6.8574   6.9031   7.0722   7.0925   7.1300   7.1775
     7.2402   7.4942   7.5128   7.5676   7.6012   7.6666   7.6735   7.6928
     7.7059   7.7242   7.7679   7.7764   7.8044   7.8333   7.8443   7.8567
     7.8690   7.8836   7.8852   7.8944   7.8979   7.9128   7.9221   7.9281
     7.9294   7.9465   7.9626   8.0097   8.0576   8.0583   8.0891   8.0959
     8.1060   8.1094   8.1132   8.1203   8.2092   8.2117   8.2536   8.2632
     8.2728   8.2736   8.3078   8.3140   8.3350   8.3500   8.3600   8.4455
     8.4535   8.4755   8.5148

     the Fermi energy is     4.9944 ev

!    total energy              =   -5390.20715503 Ry
     Harris-Foulkes estimate   =   -5390.20715503 Ry
     estimated scf accuracy    <          9.8E-09 Ry

     The total energy is the sum of the following terms:

     one-electron contribution =   -3527.69999410 Ry
     hartree contribution      =    1992.58805442 Ry
     xc contribution           =    -854.65429571 Ry
     ewald contribution        =   -3007.07112401 Ry
     Hubbard energy            =       6.63020437 Ry
     smearing contrib. (-TS)   =      -0.00000000 Ry

     total magnetization       =    -0.00 Bohr mag/cell
     absolute magnetization    =     0.00 Bohr mag/cell

     convergence has been achieved in  27 iterations
 forces --- starting time for forces:
     forces       :      0.00s CPU      0.00s WALL (       1 calls)

     Forces acting on atoms (Ry/au):

 forces --- nonlocal contribution:
     forces       :      5.18s CPU      5.19s WALL (       2 calls)
 forces --- local contribution:
     forces       :      5.20s CPU      5.21s WALL (       3 calls)

     negative rho (up, down):  0.119E-01 0.119E-01
 forces --- NLCC contribution:
     forces       :      5.34s CPU      5.36s WALL (       4 calls)
 forces --- entering force_hub:
     forces       :      5.34s CPU      5.36s WALL (       5 calls)
           1  forces --- i/o, init_us_2, calbec, s_psi:
     forces       :      5.47s CPU      5.49s WALL (       6 calls)
           1  forces --- dn/dtau:
     forces       :     63.72s CPU     63.80s WALL (       7 calls)
           2  forces --- i/o, init_us_2, calbec, s_psi:
     forces       :     63.84s CPU     63.92s WALL (       8 calls)
           2  forces --- dn/dtau:
     forces       :    121.34s CPU    121.47s WALL (       9 calls)
           3  forces --- i/o, init_us_2, calbec, s_psi:
     forces       :    121.46s CPU    121.59s WALL (      10 calls)
           3  forces --- dn/dtau:
     forces       :    178.84s CPU    178.98s WALL (      11 calls)
           4  forces --- i/o, init_us_2, calbec, s_psi:
     forces       :    178.96s CPU    179.11s WALL (      12 calls)
           4  forces --- dn/dtau:
     forces       :    235.97s CPU    236.13s WALL (      13 calls)
           5  forces --- i/o, init_us_2, calbec, s_psi:
     forces       :    236.08s CPU    236.25s WALL (      14 calls)
           5  forces --- dn/dtau:
     forces       :    292.11s CPU    292.28s WALL (      15 calls)
           6  forces --- i/o, init_us_2, calbec, s_psi:
     forces       :    292.22s CPU    292.40s WALL (      16 calls)
           6  forces --- dn/dtau:
     forces       :    346.57s CPU    346.78s WALL (      17 calls)
           7  forces --- i/o, init_us_2, calbec, s_psi:
     forces       :    346.69s CPU    346.90s WALL (      18 calls)
           7  forces --- dn/dtau:
     forces       :    399.47s CPU    399.73s WALL (      19 calls)
           8  forces --- i/o, init_us_2, calbec, s_psi:
     forces       :    399.59s CPU    399.85s WALL (      20 calls)
           8  forces --- dn/dtau:
     forces       :    452.11s CPU    452.39s WALL (      21 calls)
           9  forces --- i/o, init_us_2, calbec, s_psi:
     forces       :    452.23s CPU    452.51s WALL (      22 calls)
           9  forces --- dn/dtau:
     forces       :    505.34s CPU    505.65s WALL (      23 calls)
          10  forces --- i/o, init_us_2, calbec, s_psi:
     forces       :    505.46s CPU    505.77s WALL (      24 calls)
          10  forces --- dn/dtau:
     forces       :    558.37s CPU    558.69s WALL (      25 calls)
          11  forces --- i/o, init_us_2, calbec, s_psi:
     forces       :    558.49s CPU    558.81s WALL (      26 calls)
          11  forces --- dn/dtau:
     forces       :    611.39s CPU    611.72s WALL (      27 calls)
          12  forces --- i/o, init_us_2, calbec, s_psi:
     forces       :    611.50s CPU    611.84s WALL (      28 calls)
          12  forces --- dn/dtau:
     forces       :    664.54s CPU    664.89s WALL (      29 calls)
          13  forces --- i/o, init_us_2, calbec, s_psi:
     forces       :    664.65s CPU    665.01s WALL (      30 calls)
          13  forces --- dn/dtau:
     forces       :    717.18s CPU    717.56s WALL (      31 calls)
          14  forces --- i/o, init_us_2, calbec, s_psi:
     forces       :    717.30s CPU    717.68s WALL (      32 calls)
          14  forces --- dn/dtau:
     forces       :    769.49s CPU    769.90s WALL (      33 calls)
          15  forces --- i/o, init_us_2, calbec, s_psi:
     forces       :    769.61s CPU    770.03s WALL (      34 calls)
          15  forces --- dn/dtau:
     forces       :    821.74s CPU    822.19s WALL (      35 calls)
          16  forces --- i/o, init_us_2, calbec, s_psi:
     forces       :    821.86s CPU    822.31s WALL (      36 calls)
          16  forces --- dn/dtau:
     forces       :    874.11s CPU    874.58s WALL (      37 calls)
 forces --- Hubbard contribution:
     forces       :    874.11s CPU    874.58s WALL (      38 calls)
 forces --- ionic contribution:
     forces       :    874.13s CPU    874.60s WALL (      39 calls)
 forces --- SCF contribution:
     forces       :    874.27s CPU    874.74s WALL (      40 calls)
     atom   1 type  2   force =     0.00718631   -0.00341033   -0.01213780
     atom   2 type  2   force =     0.01015931   -0.00869392   -0.01844532
     atom   3 type  2   force =     0.00718631    0.00341033   -0.01213780
     atom   4 type  2   force =     0.01015931    0.00869392   -0.01844532
     atom   5 type  2   force =     0.00479720    0.00000000   -0.01314897
     atom   6 type  2   force =     0.00520734    0.00000000   -0.01681665
     atom   7 type  2   force =    -0.08268975    0.00000000    0.01906996
     atom   8 type  2   force =    -0.01774945    0.00000000    0.01279464
     atom   9 type  2   force =    -0.01594857    0.01152204    0.01721743
     atom  10 type  2   force =    -0.00840418    0.00403137    0.01337289
     atom  11 type  2   force =    -0.01594857   -0.01152204    0.01721743
     atom  12 type  2   force =    -0.00840418   -0.00403137    0.01337289
     atom  13 type  2   force =    -0.00669583    0.00000000   -0.29238281
     atom  14 type  2   force =     0.00401444    0.00000000    0.02328391
     atom  15 type  2   force =    -0.00908320    0.04309112    0.01494732
     atom  16 type  2   force =     0.00027014    0.00819776    0.01159261
     atom  17 type  2   force =    -0.00908320   -0.04309112    0.01494732
     atom  18 type  2   force =     0.00027014   -0.00819776    0.01159261
     atom  19 type  2   force =     0.00657811   -0.00782077   -0.00273045
     atom  20 type  2   force =     0.03336780   -0.02901786   -0.01997332
     atom  21 type  2   force =     0.00657811    0.00782077   -0.00273045
     atom  22 type  2   force =     0.03336780    0.02901786   -0.01997332
     atom  23 type  2   force =     0.00187328    0.00000000   -0.01149671
     atom  24 type  2   force =     0.00819802    0.00000000   -0.01665430
     atom  25 type  1   force =    -0.00159505    0.00000000    0.00304023
     atom  26 type  1   force =     0.00580539    0.00000000    0.00717162
     atom  27 type  1   force =    -0.00361305   -0.00290454    0.00222468
     atom  28 type  1   force =    -0.00295562   -0.00646922    0.00198435
     atom  29 type  1   force =    -0.00361305    0.00290454    0.00222468
     atom  30 type  1   force =    -0.00295562    0.00646922    0.00198435
     atom  31 type  1   force =     0.01207947    0.01631138   -0.00032182
     atom  32 type  1   force =     0.00545092    0.00466225   -0.00279990
     atom  33 type  1   force =     0.01207947   -0.01631138   -0.00032182
     atom  34 type  1   force =     0.00545092   -0.00466225   -0.00279990
     atom  35 type  1   force =     0.00778644    0.00000000   -0.00019811
     atom  36 type  1   force =     0.00525689    0.00000000   -0.00188973
     atom  37 type  1   force =    -0.01922301    0.07668274    0.01231212
     atom  38 type  1   force =    -0.00553690    0.00986923   -0.00610906
     atom  39 type  1   force =    -0.01922301   -0.07668274    0.01231212
     atom  40 type  1   force =    -0.00553690   -0.00986923   -0.00610906
     atom  41 type  1   force =    -0.01001631    0.00000000    0.00302570
     atom  42 type  1   force =    -0.00528012    0.00000000   -0.00179499
     atom  43 type  1   force =    -0.00159828    0.00000000    0.00066996
     atom  44 type  1   force =    -0.03621456    0.00000000    0.01693254
     atom  45 type  1   force =     0.00286193   -0.00532015    0.00189661
     atom  46 type  1   force =    -0.00199715   -0.01578091    0.00178511
     atom  47 type  1   force =     0.00286193    0.00532015    0.00189661
     atom  48 type  1   force =    -0.00199715    0.01578091    0.00178511
     atom  49 type  1   force =    -0.00366472    0.00271448   -0.00907295
     atom  50 type  1   force =    -0.00222854    0.00196953    0.00844805
     atom  51 type  1   force =    -0.00366472   -0.00271448   -0.00907295
     atom  52 type  1   force =    -0.00222854   -0.00196953    0.00844805
     atom  53 type  1   force =    -0.00091755    0.00000000   -0.00186849
     atom  54 type  1   force =    -0.00060000    0.00000000    0.00545768
     atom  55 type  3   force =    -0.00857268    0.00000000    0.22356571
     atom  56 type  1   force =    -0.00030944    0.00000000    0.01278513
     atom  57 type  1   force =     0.00002390   -0.00321561   -0.00571650
     atom  58 type  1   force =     0.00058338   -0.00167930    0.00403068
     atom  59 type  1   force =     0.00002390    0.00321561   -0.00571650
     atom  60 type  1   force =     0.00058338    0.00167930    0.00403068
     atom  61 type  1   force =     0.00515395    0.00000000   -0.00901881
     atom  62 type  1   force =     0.00245312    0.00000000    0.00463969
     atom  63 type  1   force =     0.00102719   -0.00097685   -0.00485142
     atom  64 type  1   force =     0.00043912   -0.00059557    0.00117065
     atom  65 type  1   force =     0.00102719    0.00097685   -0.00485142
     atom  66 type  1   force =     0.00043912    0.00059557    0.00117065
     atom  67 type  1   force =     0.01353976    0.00000000   -0.01466485
     atom  68 type  1   force =     0.11640062    0.00000000    0.00714636
     atom  69 type  1   force =     0.00598313   -0.00112165   -0.00916074
     atom  70 type  1   force =     0.01776244   -0.00424026   -0.00760159
     atom  71 type  1   force =     0.00598313    0.00112165   -0.00916074
     atom  72 type  1   force =     0.01776244    0.00424026   -0.00760159
     atom  73 type  1   force =    -0.01959337    0.00335935    0.00612010
     atom  74 type  1   force =    -0.00849497    0.00068759    0.00813226
     atom  75 type  1   force =    -0.01959337   -0.00335935    0.00612010
     atom  76 type  1   force =    -0.00849497   -0.00068759    0.00813226
     atom  77 type  1   force =    -0.00852796    0.00000000    0.00703797
     atom  78 type  1   force =    -0.00443429    0.00000000    0.00824149
     atom  79 type  1   force =     0.00013398    0.00060550   -0.00167614
     atom  80 type  1   force =    -0.00073716    0.00054322    0.00588279
     atom  81 type  1   force =     0.00013398   -0.00060550   -0.00167614
     atom  82 type  1   force =    -0.00073716   -0.00054322    0.00588279
     atom  83 type  1   force =     0.00010890    0.00000000   -0.00042548
     atom  84 type  1   force =    -0.00024740    0.00000000    0.00445603

     Total force =     0.438116     Total SCF correction =     0.000445


     entering subroutine stress ...


     negative rho (up, down):  0.119E-01 0.119E-01
          total   stress  (Ry/bohr**3)                   (kbar)     P=   21.69
   0.00018724   0.00000000  -0.00003402         27.54      0.00     -5.00
   0.00000000   0.00015253   0.00000000          0.00     22.44      0.00
  -0.00003402   0.00000000   0.00010247         -5.00      0.00     15.07


     Writing output data file v2o5.O55-FCH.save
 
     init_run     :     25.69s CPU     26.70s WALL (       1 calls)
     electrons    :   1808.67s CPU   1828.20s WALL (       1 calls)
     forces       :    874.27s CPU    874.74s WALL (      41 calls)
     stress       :   1094.49s CPU   1095.49s WALL (       1 calls)

     Called by init_run:
     wfcinit      :     22.98s CPU     23.43s WALL (       1 calls)
     potinit      :      0.23s CPU      0.24s WALL (       1 calls)

     Called by electrons:
     c_bands      :   1523.65s CPU   1539.16s WALL (      27 calls)
     sum_band     :    250.13s CPU    252.18s WALL (      27 calls)
     v_of_rho     :      1.97s CPU      1.99s WALL (      28 calls)
     newd         :     28.16s CPU     28.16s WALL (      28 calls)
     mix_rho      :      2.19s CPU      2.21s WALL (      27 calls)

     Called by c_bands:
     init_us_2    :      1.97s CPU      2.40s WALL (    1088 calls)
     cegterg      :   1514.19s CPU   1527.18s WALL (     432 calls)

     Called by *egterg:
     h_psi        :    835.02s CPU    837.71s WALL (    1907 calls)
     s_psi        :     42.67s CPU     42.70s WALL (    2083 calls)
     g_psi        :      0.53s CPU      0.53s WALL (    1459 calls)
     cdiaghg      :    548.76s CPU    558.70s WALL (    1891 calls)

     Called by h_psi:
     add_vuspsi   :     35.20s CPU     35.32s WALL (    1907 calls)

     General routines
     calbec       :    121.67s CPU    122.05s WALL (    4758 calls)
     fft          :      3.11s CPU      3.14s WALL (     902 calls)
     ffts         :      1.63s CPU      1.64s WALL (    1448 calls)
     fftw         :    863.65s CPU    866.60s WALL (  917914 calls)
     interpolate  :      0.51s CPU      0.52s WALL (     110 calls)
     davcio       :      0.50s CPU      4.41s WALL (    3184 calls)
 
     Parallel routines
     fft_scatter  :    728.02s CPU    730.45s WALL (  920264 calls)
 
     PWSCF        :     1h 3m CPU        1h 4m WALL

 
   This run was terminated on:  17:10:37   6Sep2018            

=------------------------------------------------------------------------------=
   JOB DONE.
=------------------------------------------------------------------------------=
