
     Program PWSCF v.4.3        starts on 29Aug2018 at 11: 7:37 

     This program is part of the open-source Quantum ESPRESSO suite
     for quantum simulation of materials; please cite
         "P. Giannozzi et al., J. Phys.:Condens. Matter 21 395502 (2009);
          URL http://www.quantum-espresso.org", 
     in publications or presentations arising from this work. More details at
     http://www.quantum-espresso.org/wiki/index.php/Citing_Quantum-ESPRESSO

     Parallel version (MPI), running on    64 processors
     R & G space division:  proc/pool =   64

     Current dimensions of program PWSCF are:
     Max number of different atomic species (ntypx) = **
     Max number of k-points (npk) =  40000
     Max angular momentum in pseudopotentials (lmaxx) =  3
     Waiting for input...

     Subspace diagonalization in iterative solution of the eigenvalue problem:
     parallel, distributed-memory algorithm (size of sub-group:  5*  5 procs)

     Found symmetry operation: I + (  0.0000  0.0000 -0.5000)
     This is a supercell, fractional translation are disabled
 
   Stick Mesh
   ----------
   nst =  4753,  nstw =   649, nsts =  2383
               n.st   n.stw   n.sts    n.g    n.gw   n.gs
   min          74      10      37    4548     230    1599
   max          75      11      38    4553     236    1623
       4753     649    2383  291115   14915  103091
 


     bravais-lattice index     =           14
     lattice parameter (a_0)   =      18.5628  a.u.
     unit-cell volume          =    6094.5942 (a.u.)^3
     number of atoms/cell      =           72
     number of atomic types    =            2
     number of electrons       =       384.00
     number of Kohn-Sham states=          230
     kinetic-energy cutoff     =      25.0000  Ry
     charge density cutoff     =     200.0000  Ry
     convergence threshold     =      1.0E-08
     mixing beta               =       0.3000
     number of iterations used =            8  local-TF  mixing
     Exchange-correlation      =  SLA  PW   PBE  PBE (1434)
     EXX-fraction              =        0.00

     celldm(1)=  18.562780  celldm(2)=   1.000000  celldm(3)=   1.100234
     celldm(4)=   0.000000  celldm(5)=   0.000000  celldm(6)=  -0.500000

     crystal axes: (cart. coord. in units of a_0)
               a(1) = (   1.000000   0.000000   0.000000 )  
               a(2) = (  -0.500000   0.866025   0.000000 )  
               a(3) = (   0.000000   0.000000   1.100234 )  

     reciprocal axes: (cart. coord. in units 2 pi/a_0)
               b(1) = (  1.000000  0.577350  0.000000 )  
               b(2) = (  0.000000  1.154701  0.000000 )  
               b(3) = (  0.000000  0.000000  0.908897 )  


     PseudoPot. # 1 for O  read from file O.pbe-van_bm.UPF
     MD5 check sum: ca2828d9fb1f294809e918903b7648d1
     Pseudo is Ultrasoft, Zval =  6.0
     Generated by new atomic code, or converted to UPF format
     Using radial grid of  737 points,  4 beta functions with: 
                l(1) =   0
                l(2) =   0
                l(3) =   1
                l(4) =   1
     Q(r) pseudized with  8 coefficients,  rinner =    0.800   0.800   0.800


     PseudoPot. # 2 for Si read from file Si.pbe-n-van.UPF
     MD5 check sum: 8a97496598b7338af554a5de8957bfee
     Pseudo is Ultrasoft + core correction, Zval =  4.0
     Generated by new atomic code, or converted to UPF format
     Using radial grid of  899 points,  6 beta functions with: 
                l(1) =   0
                l(2) =   0
                l(3) =   1
                l(4) =   1
                l(5) =   2
                l(6) =   2
     Q(r) pseudized with  8 coefficients,  rinner =    0.900   0.900   0.900
                                                       0.900   0.900

     atomic species   valence    mass     pseudopotential
        O              6.00    15.99900     O ( 1.00)
        Si             4.00    28.08600     Si( 1.00)

     No symmetry found

   Cartesian axes

     site n.     atom                  positions (a_0 units)
         1           Si  tau(  1) = (   0.2348500   0.0000000   0.0916862  )
         2           Si  tau(  2) = (   0.2348500   0.0000000   0.6418033  )
         3           Si  tau(  3) = (  -0.0151500   0.4330127   0.0916862  )
         4           Si  tau(  4) = (  -0.0151500   0.4330127   0.6418033  )
         5           Si  tau(  5) = (   0.7348500   0.0000000   0.0916862  )
         6           Si  tau(  6) = (   0.7348500   0.0000000   0.6418033  )
         7           Si  tau(  7) = (   0.4848500   0.4330127   0.0916862  )
         8           Si  tau(  8) = (   0.4848500   0.4330127   0.6418033  )
         9           Si  tau(  9) = (  -0.1174250   0.2033861   0.4584309  )
        10           Si  tau( 10) = (  -0.1174250   0.2033861   1.0085480  )
        11           Si  tau( 11) = (  -0.3674250   0.6363988   0.4584309  )
        12           Si  tau( 12) = (  -0.3674250   0.6363988   1.0085480  )
        13           Si  tau( 13) = (   0.3825750   0.2033861   0.4584309  )
        14           Si  tau( 14) = (   0.3825750   0.2033861   1.0085480  )
        15           Si  tau( 15) = (   0.1325750   0.6363988   0.4584309  )
        16           Si  tau( 16) = (   0.1325750   0.6363988   1.0085480  )
        17           Si  tau( 17) = (   0.1325750   0.2296266   0.2750585  )
        18           Si  tau( 18) = (   0.1325750   0.2296266   0.8251756  )
        19           Si  tau( 19) = (  -0.1174250   0.6626393   0.2750585  )
        20           Si  tau( 20) = (  -0.1174250   0.6626393   0.8251756  )
        21           Si  tau( 21) = (   0.6325750   0.2296266   0.2750585  )
        22           Si  tau( 22) = (   0.6325750   0.2296266   0.8251756  )
        23           Si  tau( 23) = (   0.3825750   0.6626393   0.2750585  )
        24           Si  tau( 24) = (   0.3825750   0.6626393   0.8251756  )
        25           O   tau( 25) = (   0.1398500   0.1157010   0.1570584  )
        26           O   tau( 26) = (   0.1398500   0.1157010   0.7071755  )
        27           O   tau( 27) = (  -0.1101500   0.5487137   0.1570584  )
        28           O   tau( 28) = (  -0.1101500   0.5487137   0.7071755  )
        29           O   tau( 29) = (   0.6398500   0.1157010   0.1570584  )
        30           O   tau( 30) = (   0.6398500   0.1157010   0.7071755  )
        31           O   tau( 31) = (   0.3898500   0.5487137   0.1570584  )
        32           O   tau( 32) = (   0.3898500   0.5487137   0.7071755  )
        33           O   tau( 33) = (   0.3298750   0.0632632   0.5238031  )
        34           O   tau( 34) = (   0.3298750   0.0632632   1.0739202  )
        35           O   tau( 35) = (   0.0798750   0.4962759   0.5238031  )
        36           O   tau( 36) = (   0.0798750   0.4962759   1.0739202  )
        37           O   tau( 37) = (   0.8298750   0.0632632   0.5238031  )
        38           O   tau( 38) = (   0.8298750   0.0632632   1.0739202  )
        39           O   tau( 39) = (   0.5798750   0.4962759   0.5238031  )
        40           O   tau( 40) = (   0.5798750   0.4962759   1.0739202  )
        41           O   tau( 41) = (   0.2802750   0.2540485   0.3404308  )
        42           O   tau( 42) = (   0.2802750   0.2540485   0.8905478  )
        43           O   tau( 43) = (   0.0302750   0.6870612   0.3404308  )
        44           O   tau( 44) = (   0.0302750   0.6870612   0.8905478  )
        45           O   tau( 45) = (   0.7802750   0.2540485   0.3404308  )
        46           O   tau( 46) = (   0.7802750   0.2540485   0.8905478  )
        47           O   tau( 47) = (   0.5302750   0.6870612   0.3404308  )
        48           O   tau( 48) = (   0.5302750   0.6870612   0.8905478  )
        49           O   tau( 49) = (   0.0302750   0.1789642   0.3930587  )
        50           O   tau( 50) = (   0.0302750   0.1789642   0.9431757  )
        51           O   tau( 51) = (  -0.2197250   0.6119769   0.3930587  )
        52           O   tau( 52) = (  -0.2197250   0.6119769   0.9431757  )
        53           O   tau( 53) = (   0.5302750   0.1789642   0.3930587  )
        54           O   tau( 54) = (   0.5302750   0.1789642   0.9431757  )
        55           O   tau( 55) = (   0.2802750   0.6119769   0.3930587  )
        56           O   tau( 56) = (   0.2802750   0.6119769   0.9431757  )
        57           O   tau( 57) = (  -0.1101500   0.3173117   0.0263139  )
        58           O   tau( 58) = (  -0.1101500   0.3173117   0.5764310  )
        59           O   tau( 59) = (  -0.3601500   0.7503244   0.0263139  )
        60           O   tau( 60) = (  -0.3601500   0.7503244   0.5764310  )
        61           O   tau( 61) = (   0.3898500   0.3173117   0.0263139  )
        62           O   tau( 62) = (   0.3898500   0.3173117   0.5764310  )
        63           O   tau( 63) = (   0.1398500   0.7503244   0.0263139  )
        64           O   tau( 64) = (   0.1398500   0.7503244   0.5764310  )
        65           O   tau( 65) = (   0.0798750   0.3697495   0.2096863  )
        66           O   tau( 66) = (   0.0798750   0.3697495   0.7598034  )
        67           O   tau( 67) = (  -0.1701250   0.8027622   0.2096863  )
        68           O   tau( 68) = (  -0.1701250   0.8027622   0.7598034  )
        69           O   tau( 69) = (   0.5798750   0.3697495   0.2096863  )
        70           O   tau( 70) = (   0.5798750   0.3697495   0.7598034  )
        71           O   tau( 71) = (   0.3298750   0.8027622   0.2096863  )
        72           O   tau( 72) = (   0.3298750   0.8027622   0.7598034  )

     number of k points=     8  Fermi-Dirac smearing, width (Ry)=  0.0019
                       cart. coord. in units 2pi/a_0
        k(    1) = (   0.0000000   0.0000000   0.0000000), wk =   0.2500000
        k(    2) = (   0.0000000   0.0000000  -0.4544487), wk =   0.2500000
        k(    3) = (   0.0000000  -0.5773503   0.0000000), wk =   0.2500000
        k(    4) = (   0.0000000  -0.5773503  -0.4544487), wk =   0.2500000
        k(    5) = (  -0.5000000  -0.2886751   0.0000000), wk =   0.2500000
        k(    6) = (  -0.5000000  -0.2886751  -0.4544487), wk =   0.2500000
        k(    7) = (   0.5000000  -0.2886751   0.0000000), wk =   0.2500000
        k(    8) = (   0.5000000  -0.2886751   0.4544487), wk =   0.2500000

     G cutoff = 1745.6464  ( 291115 G-vectors)     FFT grid: ( 90, 90, 96)
     G cutoff =  872.8232  ( 103091 G-vectors)  smooth grid: ( 60, 60, 72)

     Largest allocated arrays     est. size (Mb)     dimensions
        Kohn-Sham Wavefunctions         0.70 Mb     (    199, 230)
        NL pseudopotentials             2.48 Mb     (    199, 816)
        Each V/rho on FFT grid          0.25 Mb     (  16200)
        Each G-vector array             0.03 Mb     (   4548)
        G-vector shells                 0.02 Mb     (   2311)
     Largest temporary arrays     est. size (Mb)     dimensions
        Auxiliary wavefunctions         2.79 Mb     (    199, 920)
        Each subspace H/S matrix       12.92 Mb     (    920, 920)
        Each <psi_i|beta_j> matrix      2.86 Mb     (    816, 230)
        Arrays for rho mixing           1.98 Mb     (  16200,   8)

     Initial potential from superposition of free atoms

     starting charge  383.98382, renormalised to  384.00000
     Starting wfc are  288 atomic wfcs

     total cpu time spent up to now is      8.29 secs

     per-process dynamical memory:    76.9 Mb

     Self-consistent Calculation

     iteration #  1     ecut=    25.00 Ry     beta=0.30
     Davidson diagonalization with overlap
     ethr =  1.00E-02,  avg # of iterations =  3.5

     total cpu time spent up to now is     30.29 secs

     total energy              =   -1776.78325389 Ry
     Harris-Foulkes estimate   =   -1780.24511421 Ry
     estimated scf accuracy    <      16.62317841 Ry

     iteration #  2     ecut=    25.00 Ry     beta=0.30
     Davidson diagonalization with overlap
     ethr =  4.33E-03,  avg # of iterations =  1.0

     total cpu time spent up to now is     42.62 secs

     total energy              =   -1774.03287724 Ry
     Harris-Foulkes estimate   =   -1777.24036051 Ry
     estimated scf accuracy    <       7.14903518 Ry

     iteration #  3     ecut=    25.00 Ry     beta=0.30
     Davidson diagonalization with overlap
     ethr =  1.86E-03,  avg # of iterations =  2.0

     total cpu time spent up to now is     58.84 secs

     total energy              =   -1775.48214509 Ry
     Harris-Foulkes estimate   =   -1775.51517957 Ry
     estimated scf accuracy    <       0.33683763 Ry

     iteration #  4     ecut=    25.00 Ry     beta=0.30
     Davidson diagonalization with overlap
     ethr =  8.77E-05,  avg # of iterations =  7.9

     total cpu time spent up to now is     88.28 secs

     total energy              =   -1775.49541989 Ry
     Harris-Foulkes estimate   =   -1775.52885982 Ry
     estimated scf accuracy    <       0.18738781 Ry

     iteration #  5     ecut=    25.00 Ry     beta=0.30
     Davidson diagonalization with overlap
     ethr =  4.88E-05,  avg # of iterations =  2.0

     total cpu time spent up to now is    102.02 secs

     total energy              =   -1775.51629182 Ry
     Harris-Foulkes estimate   =   -1775.51322820 Ry
     estimated scf accuracy    <       0.00912009 Ry

     iteration #  6     ecut=    25.00 Ry     beta=0.30
     Davidson diagonalization with overlap
     ethr =  2.38E-06,  avg # of iterations =  8.5

     total cpu time spent up to now is    133.09 secs

     total energy              =   -1775.51734069 Ry
     Harris-Foulkes estimate   =   -1775.51793535 Ry
     estimated scf accuracy    <       0.00585925 Ry

     iteration #  7     ecut=    25.00 Ry     beta=0.30
     Davidson diagonalization with overlap
     ethr =  1.53E-06,  avg # of iterations =  2.0

     total cpu time spent up to now is    148.18 secs

     total energy              =   -1775.51849012 Ry
     Harris-Foulkes estimate   =   -1775.51812512 Ry
     estimated scf accuracy    <       0.00007671 Ry

     iteration #  8     ecut=    25.00 Ry     beta=0.30
     Davidson diagonalization with overlap
     ethr =  2.00E-08,  avg # of iterations =  3.8

     total cpu time spent up to now is    167.77 secs

     total energy              =   -1775.51870101 Ry
     Harris-Foulkes estimate   =   -1775.51852024 Ry
     estimated scf accuracy    <       0.00003705 Ry

     iteration #  9     ecut=    25.00 Ry     beta=0.30
     Davidson diagonalization with overlap
     ethr =  9.65E-09,  avg # of iterations =  2.0

     total cpu time spent up to now is    182.08 secs

     total energy              =   -1775.51879021 Ry
     Harris-Foulkes estimate   =   -1775.51870386 Ry
     estimated scf accuracy    <       0.00001093 Ry

     iteration # 10     ecut=    25.00 Ry     beta=0.30
     Davidson diagonalization with overlap
     ethr =  2.85E-09,  avg # of iterations =  2.0

     total cpu time spent up to now is    199.45 secs

     total energy              =   -1775.51883890 Ry
     Harris-Foulkes estimate   =   -1775.51879351 Ry
     estimated scf accuracy    <       0.00000098 Ry

     iteration # 11     ecut=    25.00 Ry     beta=0.30
     Davidson diagonalization with overlap
     ethr =  2.55E-10,  avg # of iterations =  2.0

     total cpu time spent up to now is    215.74 secs

     total energy              =   -1775.51886097 Ry
     Harris-Foulkes estimate   =   -1775.51883907 Ry
     estimated scf accuracy    <       0.00000006 Ry

     iteration # 12     ecut=    25.00 Ry     beta=0.30
     Davidson diagonalization with overlap
     ethr =  1.52E-11,  avg # of iterations =  3.0

     total cpu time spent up to now is    234.76 secs

     total energy              =   -1775.51887149 Ry
     Harris-Foulkes estimate   =   -1775.51886099 Ry
     estimated scf accuracy    <       0.00000001 Ry

     iteration # 13     ecut=    25.00 Ry     beta=0.30
     Davidson diagonalization with overlap
     ethr =  2.75E-12,  avg # of iterations =  2.1

     total cpu time spent up to now is    251.77 secs

     total energy              =   -1775.51887665 Ry
     Harris-Foulkes estimate   =   -1775.51887150 Ry
     estimated scf accuracy    <       0.00000001 Ry

     iteration # 14     ecut=    25.00 Ry     beta=0.30
     Davidson diagonalization with overlap
     ethr =  2.75E-12,  avg # of iterations =  2.0

     total cpu time spent up to now is    269.22 secs

     End of self-consistent calculation

          k = 0.0000 0.0000 0.0000 ( 12915 PWs)   bands (ev):

   -16.9915 -16.5266 -16.5266 -16.5027 -16.5027 -16.5027 -16.4351 -16.4351
   -16.4351 -16.0290 -16.0290 -16.0290 -15.9959 -15.9959 -15.9959 -15.5460
   -15.5460 -15.5460 -15.4684 -15.4683 -15.4200 -15.4200 -15.4200 -14.9125
   -14.9125 -14.9125 -14.8890 -14.8890 -14.8890 -14.8522 -14.8522 -14.8522
   -14.8402 -14.8402 -14.8402 -14.8376 -14.8297 -14.8297 -14.8297 -14.8292
   -14.8227 -14.8227 -14.8202 -14.8202 -14.8202 -14.7986 -14.7986 -14.7763
    -6.8066  -5.8510  -5.8510  -5.8510  -5.7032  -5.7032  -5.6994  -5.6994
    -5.6994  -4.8375  -4.8375  -4.8375  -4.7242  -4.7242  -4.7242  -3.8501
    -3.8501  -3.8501  -3.7097  -3.7097  -3.3287  -3.3287  -3.3287  -3.0618
    -3.0618  -2.8794  -2.8794  -2.8794  -2.8684  -2.8558  -2.8558  -2.8558
    -2.8507  -2.7673  -2.7673  -2.7673  -2.6780  -2.6780  -2.4896  -2.4896
    -2.4896  -2.3734  -2.3734  -2.3734  -2.0858  -2.0380  -2.0380  -2.0380
    -0.6710  -0.6710  -0.6710  -0.6513  -0.6513  -0.6513  -0.5449  -0.5449
    -0.5449  -0.3988  -0.3988  -0.3819  -0.3819  -0.3819  -0.1855  -0.1855
    -0.1699  -0.1359  -0.1359  -0.1359  -0.0882   0.0959   0.1139   0.1139
     0.1139   0.2628   0.2628   0.2628   0.4397   0.4397   0.4397   0.4539
     0.4539   0.4539   0.4559   0.4559   0.4559   0.5223   0.5223   0.7152
     0.7152   0.8046   0.8046   0.8046   0.8861   0.8861   0.8861   1.0010
     1.0010   1.0010   1.0055   1.0716   1.0716   1.1095   1.2861   1.2861
     1.2861   1.3343   1.4127   1.4127   1.4127   1.4570   1.4570   1.4570
     1.5330   1.5330   1.5330   1.5583   1.5583   1.6719   1.6719   1.6719
     1.7182   1.7182   1.7182   1.7872   1.7872   1.7872   1.8782   1.9604
     1.9604   1.9604   2.2469   2.2469   2.2971   2.2971   2.2971   2.3450
     2.3450   2.3719   2.3719   2.3720   2.4672   2.5267   2.5267   2.5267
     8.5131  10.4936  10.4936  10.8072  10.8072  10.8072  11.4843  11.4843
    11.4843  11.5662  11.5662  11.5662  11.8732  11.8732  11.9615  11.9615
    11.9615  12.2290  12.2290  12.2290  12.2773  12.2773  12.2773  12.2903
    12.2903  12.2903  12.3099  12.3099  12.3448  12.3448  12.3839  12.3839
    12.3839  12.8023  12.8023  12.8023  13.0382  13.0382

          k = 0.0000 0.0000-0.4544 ( 12872 PWs)   bands (ev):

   -16.8701 -16.8701 -16.4706 -16.4706 -16.4706 -16.4706 -16.4706 -16.4706
   -16.0232 -16.0232 -16.0128 -16.0128 -16.0128 -16.0128 -16.0128 -16.0128
   -15.4827 -15.4827 -15.4827 -15.4827 -15.4827 -15.4827 -15.0162 -15.0162
   -14.8933 -14.8933 -14.8933 -14.8933 -14.8933 -14.8933 -14.8556 -14.8556
   -14.8556 -14.8556 -14.8556 -14.8556 -14.8276 -14.8276 -14.8214 -14.8214
   -14.8214 -14.8214 -14.8214 -14.8214 -14.8132 -14.8132 -14.7832 -14.7832
    -6.5004  -6.5004  -5.7784  -5.7784  -5.7784  -5.7784  -5.7784  -5.7784
    -4.7829  -4.7829  -4.7829  -4.7829  -4.7829  -4.7829  -4.6649  -4.6649
    -3.6424  -3.6424  -3.6424  -3.6424  -3.6424  -3.6424  -3.1013  -3.1013
    -2.9720  -2.9720  -2.9219  -2.9219  -2.8659  -2.8659  -2.8659  -2.8659
    -2.8659  -2.8659  -2.5496  -2.5496  -2.5496  -2.5496  -2.5496  -2.5496
    -2.2920  -2.2920  -2.2264  -2.2264  -2.2264  -2.2264  -2.2264  -2.2264
    -0.6164  -0.6164  -0.6164  -0.6164  -0.6164  -0.6164  -0.5352  -0.5352
    -0.5352  -0.5352  -0.5352  -0.5352  -0.4780  -0.4780  -0.1606  -0.1606
    -0.0831  -0.0831   0.0272   0.0272   0.0272   0.0272   0.0272   0.0272
     0.2293   0.2293   0.2293   0.2293   0.2293   0.2293   0.2859   0.2859
     0.6200   0.6200   0.6200   0.6200   0.6200   0.6200   0.7890   0.7890
     0.7935   0.7935   0.7935   0.7935   0.7935   0.7935   0.9524   0.9524
     1.0462   1.0462   1.0653   1.0653   1.1081   1.1081   1.1081   1.1081
     1.1081   1.1081   1.3950   1.3950   1.3950   1.3950   1.3950   1.3950
     1.4769   1.4769   1.6049   1.6049   1.6049   1.6049   1.6049   1.6049
     1.8408   1.8408   1.8408   1.8408   1.8408   1.8408   2.0273   2.0273
     2.1184   2.1184   2.1184   2.1184   2.1184   2.1184   2.3377   2.3377
     2.4458   2.4458   2.4458   2.4458   2.4458   2.4458   2.4742   2.4742
     9.1229   9.1229  11.0986  11.0986  11.0986  11.0986  11.0986  11.0986
    11.6587  11.6587  11.6587  11.6587  11.6587  11.6587  11.7171  11.7171
    11.8039  11.8039  11.8214  11.8214  12.1335  12.1335  12.1335  12.1335
    12.1335  12.1335  12.6153  12.6153  12.6153  12.6153  12.6153  12.6153
    12.8068  12.8068  13.0485  13.0485  13.0485  13.0485

          k = 0.0000-0.5774 0.0000 ( 12872 PWs)   bands (ev):

   -16.8139 -16.8139 -16.5120 -16.5120 -16.4822 -16.4822 -16.4255 -16.4255
   -16.3403 -16.3403 -16.0318 -16.0318 -16.0018 -16.0018 -15.6731 -15.6731
   -15.5029 -15.5029 -15.4479 -15.4479 -15.4452 -15.4452 -15.1077 -15.1077
   -14.9047 -14.9047 -14.8854 -14.8854 -14.8723 -14.8723 -14.8707 -14.8707
   -14.8506 -14.8506 -14.8437 -14.8437 -14.8423 -14.8423 -14.8289 -14.8289
   -14.8272 -14.8272 -14.8252 -14.8252 -14.8083 -14.8083 -14.8036 -14.8036
    -6.3628  -6.3628  -5.8837  -5.8837  -5.7779  -5.7779  -5.6856  -5.6856
    -5.3236  -5.3236  -4.6992  -4.6992  -4.6720  -4.6720  -4.1348  -4.1348
    -3.9615  -3.9615  -3.7991  -3.7991  -3.6183  -3.6183  -2.9811  -2.9811
    -2.9086  -2.9086  -2.8759  -2.8759  -2.8415  -2.8415  -2.8137  -2.8137
    -2.7540  -2.7540  -2.7222  -2.7222  -2.6672  -2.6672  -2.5745  -2.5745
    -2.3721  -2.3721  -2.3684  -2.3684  -2.2037  -2.2037  -2.0448  -2.0448
    -0.7053  -0.7053  -0.5940  -0.5940  -0.5198  -0.5198  -0.4844  -0.4844
    -0.4787  -0.4787  -0.4633  -0.4633  -0.3486  -0.3486  -0.2753  -0.2753
    -0.1927  -0.1927  -0.1166  -0.1166  -0.0234  -0.0234   0.0763   0.0763
     0.3082   0.3082   0.3519   0.3519   0.3638   0.3638   0.3669   0.3669
     0.4246   0.4246   0.4657   0.4657   0.5325   0.5325   0.5999   0.5999
     0.7589   0.7589   0.8295   0.8295   0.9690   0.9690   0.9833   0.9833
     1.0400   1.0400   1.0578   1.0578   1.0843   1.0843   1.2037   1.2037
     1.2598   1.2598   1.4001   1.4001   1.4674   1.4674   1.4733   1.4733
     1.4965   1.4965   1.5093   1.5093   1.5571   1.5571   1.6136   1.6136
     1.7289   1.7289   1.8432   1.8432   1.9261   1.9261   2.0127   2.0127
     2.1175   2.1175   2.1446   2.1446   2.1727   2.1727   2.2599   2.2599
     2.3268   2.3268   2.4107   2.4107   2.4191   2.4191   2.5371   2.5371
     9.4122   9.4122  10.6631  10.6631  10.8917  10.8917  11.0303  11.0303
    11.4187  11.4187  11.8753  11.8753  11.8777  11.8777  11.9357  11.9357
    11.9421  11.9421  11.9688  11.9688  12.0077  12.0077  12.2405  12.2405
    12.2925  12.2925  12.4600  12.4600  12.5465  12.5465  12.6217  12.6217
    12.6520  12.6520  12.7439  12.7439  12.7466  12.7466

          k = 0.0000-0.5774-0.4544 ( 12896 PWs)   bands (ev):

   -16.7120 -16.7120 -16.7097 -16.7097 -16.4723 -16.4723 -16.4723 -16.4723
   -16.0125 -16.0125 -16.0124 -16.0124 -16.0034 -16.0034 -15.9929 -15.9929
   -15.4765 -15.4765 -15.4765 -15.4765 -15.2363 -15.2363 -15.2117 -15.2117
   -14.8864 -14.8864 -14.8864 -14.8864 -14.8677 -14.8677 -14.8677 -14.8677
   -14.8638 -14.8638 -14.8613 -14.8613 -14.8456 -14.8456 -14.8215 -14.8215
   -14.8215 -14.8215 -14.8205 -14.8205 -14.8137 -14.8137 -14.8028 -14.8028
    -6.1685  -6.1685  -6.1652  -6.1652  -5.7907  -5.7907  -5.7907  -5.7907
    -4.7265  -4.7265  -4.7261  -4.7261  -4.6776  -4.6776  -4.6776  -4.6776
    -3.8090  -3.8090  -3.8090  -3.8090  -3.4075  -3.4075  -3.4056  -3.4056
    -2.9013  -2.9013  -2.8840  -2.8840  -2.8240  -2.8240  -2.8240  -2.8240
    -2.6161  -2.6161  -2.5935  -2.5935  -2.5283  -2.5283  -2.5283  -2.5283
    -2.3992  -2.3992  -2.3334  -2.3334  -2.2385  -2.2385  -2.2385  -2.2385
    -0.6540  -0.6540  -0.6506  -0.6506  -0.6506  -0.6506  -0.6117  -0.6117
    -0.3684  -0.3684  -0.3684  -0.3684  -0.1818  -0.1818  -0.1391  -0.1391
    -0.1391  -0.1391  -0.1345  -0.1345  -0.0976  -0.0976  -0.0379  -0.0379
     0.1427   0.1427   0.2731   0.2731   0.3336   0.3336   0.3336   0.3336
     0.5150   0.5150   0.5674   0.5674   0.5823   0.5823   0.5823   0.5823
     0.7913   0.7913   0.7913   0.7913   0.9326   0.9326   1.0443   1.0443
     1.0498   1.0498   1.1231   1.1231   1.1589   1.1589   1.1589   1.1589
     1.2605   1.2605   1.2820   1.2820   1.3474   1.3474   1.3474   1.3474
     1.5802   1.5802   1.5802   1.5802   1.6309   1.6309   1.6911   1.6911
     1.7403   1.7403   1.8232   1.8232   1.8758   1.8758   1.8758   1.8758
     2.1303   2.1303   2.1303   2.1303   2.1689   2.1689   2.2568   2.2568
     2.4061   2.4061   2.4061   2.4061   2.4515   2.4515   2.5329   2.5329
     9.8515   9.8515   9.8845   9.8845  10.9406  10.9406  10.9406  10.9406
    11.7004  11.7004  11.8161  11.8161  11.8928  11.8928  11.8928  11.8928
    11.9792  11.9792  12.0697  12.0697  12.1737  12.1737  12.2534  12.2534
    12.2534  12.2534  12.2558  12.2558  12.6359  12.6359  12.6359  12.6359
    12.7867  12.7867  12.7867  12.7867  12.8228  12.8228

          k =-0.5000-0.2887 0.0000 ( 12872 PWs)   bands (ev):

   -16.8139 -16.8139 -16.5120 -16.5120 -16.4822 -16.4822 -16.4255 -16.4255
   -16.3403 -16.3403 -16.0318 -16.0318 -16.0018 -16.0018 -15.6731 -15.6731
   -15.5029 -15.5029 -15.4479 -15.4479 -15.4452 -15.4452 -15.1077 -15.1077
   -14.9047 -14.9047 -14.8854 -14.8854 -14.8723 -14.8723 -14.8707 -14.8707
   -14.8506 -14.8506 -14.8437 -14.8437 -14.8423 -14.8423 -14.8289 -14.8289
   -14.8272 -14.8272 -14.8252 -14.8252 -14.8083 -14.8083 -14.8036 -14.8036
    -6.3628  -6.3628  -5.8837  -5.8837  -5.7779  -5.7779  -5.6856  -5.6856
    -5.3236  -5.3236  -4.6992  -4.6992  -4.6720  -4.6720  -4.1348  -4.1348
    -3.9615  -3.9615  -3.7991  -3.7991  -3.6183  -3.6183  -2.9811  -2.9811
    -2.9086  -2.9086  -2.8759  -2.8759  -2.8415  -2.8415  -2.8137  -2.8137
    -2.7540  -2.7540  -2.7222  -2.7222  -2.6672  -2.6672  -2.5745  -2.5745
    -2.3721  -2.3721  -2.3684  -2.3684  -2.2037  -2.2037  -2.0448  -2.0448
    -0.7053  -0.7053  -0.5940  -0.5940  -0.5198  -0.5198  -0.4844  -0.4844
    -0.4787  -0.4787  -0.4633  -0.4633  -0.3486  -0.3486  -0.2753  -0.2753
    -0.1927  -0.1927  -0.1166  -0.1166  -0.0234  -0.0234   0.0763   0.0763
     0.3082   0.3082   0.3519   0.3519   0.3638   0.3638   0.3669   0.3669
     0.4246   0.4246   0.4657   0.4657   0.5325   0.5325   0.5999   0.5999
     0.7589   0.7589   0.8295   0.8295   0.9690   0.9690   0.9833   0.9833
     1.0400   1.0400   1.0578   1.0578   1.0843   1.0843   1.2037   1.2037
     1.2598   1.2598   1.4001   1.4001   1.4674   1.4674   1.4733   1.4733
     1.4965   1.4965   1.5093   1.5093   1.5571   1.5571   1.6136   1.6136
     1.7289   1.7289   1.8432   1.8432   1.9261   1.9261   2.0127   2.0127
     2.1175   2.1175   2.1446   2.1446   2.1727   2.1727   2.2599   2.2599
     2.3268   2.3268   2.4107   2.4107   2.4191   2.4191   2.5371   2.5371
     9.4122   9.4122  10.6631  10.6631  10.8917  10.8917  11.0303  11.0303
    11.4187  11.4187  11.8753  11.8753  11.8777  11.8777  11.9357  11.9357
    11.9421  11.9421  11.9688  11.9688  12.0077  12.0077  12.2405  12.2405
    12.2925  12.2925  12.4600  12.4600  12.5465  12.5465  12.6217  12.6217
    12.6520  12.6520  12.7439  12.7439  12.7466  12.7466

          k =-0.5000-0.2887-0.4544 ( 12896 PWs)   bands (ev):

   -16.7120 -16.7120 -16.7097 -16.7097 -16.4723 -16.4723 -16.4723 -16.4723
   -16.0124 -16.0124 -16.0124 -16.0124 -16.0034 -16.0034 -15.9929 -15.9929
   -15.4765 -15.4765 -15.4765 -15.4765 -15.2363 -15.2363 -15.2117 -15.2117
   -14.8864 -14.8864 -14.8864 -14.8864 -14.8677 -14.8677 -14.8677 -14.8677
   -14.8638 -14.8638 -14.8613 -14.8613 -14.8456 -14.8456 -14.8215 -14.8215
   -14.8215 -14.8215 -14.8205 -14.8205 -14.8137 -14.8137 -14.8028 -14.8028
    -6.1685  -6.1685  -6.1652  -6.1652  -5.7907  -5.7907  -5.7907  -5.7907
    -4.7265  -4.7265  -4.7261  -4.7261  -4.6776  -4.6776  -4.6776  -4.6776
    -3.8090  -3.8090  -3.8090  -3.8090  -3.4075  -3.4075  -3.4056  -3.4056
    -2.9013  -2.9013  -2.8840  -2.8840  -2.8240  -2.8240  -2.8240  -2.8240
    -2.6161  -2.6161  -2.5935  -2.5935  -2.5283  -2.5283  -2.5283  -2.5283
    -2.3992  -2.3992  -2.3334  -2.3334  -2.2385  -2.2385  -2.2385  -2.2385
    -0.6540  -0.6540  -0.6506  -0.6506  -0.6506  -0.6506  -0.6117  -0.6117
    -0.3684  -0.3684  -0.3684  -0.3684  -0.1818  -0.1818  -0.1391  -0.1391
    -0.1391  -0.1391  -0.1345  -0.1345  -0.0976  -0.0976  -0.0379  -0.0379
     0.1427   0.1427   0.2731   0.2731   0.3336   0.3336   0.3336   0.3336
     0.5150   0.5150   0.5674   0.5674   0.5823   0.5823   0.5823   0.5823
     0.7913   0.7913   0.7913   0.7913   0.9326   0.9326   1.0443   1.0443
     1.0498   1.0498   1.1231   1.1231   1.1589   1.1589   1.1589   1.1589
     1.2604   1.2604   1.2820   1.2820   1.3474   1.3474   1.3474   1.3474
     1.5802   1.5802   1.5802   1.5802   1.6309   1.6309   1.6911   1.6911
     1.7403   1.7403   1.8232   1.8232   1.8758   1.8758   1.8758   1.8758
     2.1303   2.1303   2.1303   2.1303   2.1689   2.1689   2.2568   2.2568
     2.4061   2.4061   2.4061   2.4061   2.4515   2.4515   2.5329   2.5329
     9.8515   9.8515   9.8845   9.8845  10.9406  10.9406  10.9406  10.9406
    11.7004  11.7004  11.8161  11.8161  11.8928  11.8928  11.8928  11.8928
    11.9792  11.9792  12.0697  12.0697  12.1737  12.1737  12.2534  12.2534
    12.2534  12.2534  12.2558  12.2558  12.6359  12.6359  12.6359  12.6359
    12.7867  12.7867  12.7867  12.7867  12.8228  12.8228

          k = 0.5000-0.2887 0.0000 ( 12872 PWs)   bands (ev):

   -16.8139 -16.8139 -16.5120 -16.5120 -16.4822 -16.4822 -16.4255 -16.4255
   -16.3403 -16.3403 -16.0318 -16.0318 -16.0018 -16.0018 -15.6731 -15.6731
   -15.5029 -15.5029 -15.4479 -15.4479 -15.4452 -15.4452 -15.1077 -15.1077
   -14.9047 -14.9047 -14.8854 -14.8854 -14.8723 -14.8723 -14.8707 -14.8707
   -14.8506 -14.8506 -14.8437 -14.8437 -14.8423 -14.8423 -14.8289 -14.8289
   -14.8272 -14.8272 -14.8252 -14.8252 -14.8083 -14.8083 -14.8036 -14.8036
    -6.3628  -6.3628  -5.8837  -5.8837  -5.7779  -5.7779  -5.6856  -5.6856
    -5.3236  -5.3236  -4.6992  -4.6992  -4.6720  -4.6720  -4.1348  -4.1348
    -3.9615  -3.9615  -3.7991  -3.7991  -3.6183  -3.6183  -2.9811  -2.9811
    -2.9086  -2.9086  -2.8759  -2.8759  -2.8415  -2.8415  -2.8137  -2.8137
    -2.7540  -2.7540  -2.7222  -2.7222  -2.6672  -2.6672  -2.5745  -2.5745
    -2.3721  -2.3721  -2.3684  -2.3684  -2.2037  -2.2037  -2.0448  -2.0448
    -0.7053  -0.7053  -0.5940  -0.5940  -0.5198  -0.5198  -0.4844  -0.4844
    -0.4787  -0.4787  -0.4633  -0.4633  -0.3486  -0.3486  -0.2753  -0.2753
    -0.1927  -0.1927  -0.1166  -0.1166  -0.0234  -0.0234   0.0763   0.0763
     0.3082   0.3082   0.3519   0.3519   0.3638   0.3638   0.3669   0.3669
     0.4246   0.4246   0.4657   0.4657   0.5325   0.5325   0.5999   0.5999
     0.7589   0.7589   0.8295   0.8295   0.9690   0.9690   0.9833   0.9833
     1.0400   1.0400   1.0578   1.0578   1.0843   1.0843   1.2037   1.2037
     1.2598   1.2598   1.4001   1.4001   1.4674   1.4674   1.4733   1.4733
     1.4965   1.4965   1.5093   1.5093   1.5571   1.5571   1.6136   1.6136
     1.7289   1.7289   1.8432   1.8432   1.9261   1.9261   2.0127   2.0127
     2.1175   2.1175   2.1446   2.1446   2.1727   2.1727   2.2599   2.2599
     2.3268   2.3268   2.4107   2.4107   2.4191   2.4191   2.5371   2.5371
     9.4122   9.4122  10.6631  10.6631  10.8917  10.8917  11.0303  11.0303
    11.4187  11.4187  11.8753  11.8753  11.8777  11.8777  11.9357  11.9357
    11.9421  11.9421  11.9688  11.9688  12.0077  12.0077  12.2405  12.2405
    12.2925  12.2925  12.4600  12.4600  12.5465  12.5465  12.6217  12.6217
    12.6520  12.6520  12.7439  12.7439  12.7466  12.7466

          k = 0.5000-0.2887 0.4544 ( 12896 PWs)   bands (ev):

   -16.7120 -16.7120 -16.7097 -16.7097 -16.4723 -16.4723 -16.4723 -16.4723
   -16.0124 -16.0124 -16.0124 -16.0124 -16.0034 -16.0034 -15.9929 -15.9929
   -15.4765 -15.4765 -15.4765 -15.4765 -15.2363 -15.2363 -15.2117 -15.2117
   -14.8864 -14.8864 -14.8864 -14.8864 -14.8677 -14.8677 -14.8677 -14.8677
   -14.8638 -14.8638 -14.8613 -14.8613 -14.8456 -14.8456 -14.8215 -14.8215
   -14.8215 -14.8215 -14.8205 -14.8205 -14.8137 -14.8137 -14.8028 -14.8028
    -6.1685  -6.1685  -6.1652  -6.1652  -5.7907  -5.7907  -5.7907  -5.7907
    -4.7265  -4.7265  -4.7261  -4.7261  -4.6776  -4.6776  -4.6776  -4.6776
    -3.8090  -3.8090  -3.8090  -3.8090  -3.4075  -3.4075  -3.4056  -3.4056
    -2.9013  -2.9013  -2.8840  -2.8840  -2.8240  -2.8240  -2.8240  -2.8240
    -2.6161  -2.6161  -2.5935  -2.5935  -2.5283  -2.5283  -2.5283  -2.5283
    -2.3992  -2.3992  -2.3334  -2.3334  -2.2385  -2.2385  -2.2385  -2.2385
    -0.6540  -0.6540  -0.6506  -0.6506  -0.6506  -0.6506  -0.6117  -0.6117
    -0.3684  -0.3684  -0.3684  -0.3684  -0.1818  -0.1818  -0.1391  -0.1391
    -0.1391  -0.1391  -0.1345  -0.1345  -0.0976  -0.0976  -0.0379  -0.0379
     0.1427   0.1427   0.2731   0.2731   0.3336   0.3336   0.3336   0.3336
     0.5150   0.5150   0.5674   0.5674   0.5823   0.5823   0.5823   0.5823
     0.7913   0.7913   0.7913   0.7913   0.9326   0.9326   1.0443   1.0443
     1.0498   1.0498   1.1231   1.1231   1.1589   1.1589   1.1589   1.1589
     1.2605   1.2605   1.2820   1.2820   1.3474   1.3474   1.3474   1.3474
     1.5802   1.5802   1.5802   1.5802   1.6309   1.6309   1.6911   1.6911
     1.7403   1.7403   1.8232   1.8232   1.8758   1.8758   1.8758   1.8758
     2.1303   2.1303   2.1303   2.1303   2.1689   2.1689   2.2568   2.2568
     2.4061   2.4061   2.4061   2.4061   2.4515   2.4515   2.5329   2.5329
     9.8515   9.8515   9.8845   9.8845  10.9406  10.9406  10.9406  10.9406
    11.7004  11.7004  11.8161  11.8161  11.8928  11.8928  11.8928  11.8928
    11.9792  11.9792  12.0697  12.0697  12.1737  12.1737  12.2534  12.2534
    12.2534  12.2534  12.2558  12.2558  12.6359  12.6359  12.6359  12.6359
    12.7867  12.7867  12.7867  12.7867  12.8228  12.8228

     the Fermi energy is     5.5643 ev

!    total energy              =   -1775.51888165 Ry
     Harris-Foulkes estimate   =   -1775.51887665 Ry
     estimated scf accuracy    <          4.6E-10 Ry

     The total energy is the sum of the following terms:

     one-electron contribution =    -834.07958760 Ry
     hartree contribution      =     622.26999905 Ry
     xc contribution           =    -450.99744071 Ry
     ewald contribution        =   -1112.71185239 Ry
     smearing contrib. (-TS)   =       0.00000000 Ry

     convergence has been achieved in  14 iterations
 forces --- starting time for forces:
     forces       :      0.00s CPU      0.00s WALL (       1 calls)

     Forces acting on atoms (Ry/au):

 forces --- nonlocal contribution:
     forces       :      1.01s CPU      1.02s WALL (       2 calls)
 forces --- local contribution:
     forces       :      1.01s CPU      1.02s WALL (       3 calls)
 forces --- NLCC contribution:
     forces       :      1.07s CPU      1.08s WALL (       4 calls)
 forces --- Hubbard contribution:
     forces       :      1.07s CPU      1.08s WALL (       5 calls)
 forces --- ionic contribution:
     forces       :      1.08s CPU      1.09s WALL (       6 calls)
 forces --- SCF contribution:
     forces       :      1.13s CPU      1.14s WALL (       7 calls)
     atom   1 type  2   force =     0.00495881   -0.00000007   -0.00000008
     atom   2 type  2   force =     0.00495882   -0.00000007   -0.00000010
     atom   3 type  2   force =     0.00495884    0.00000001   -0.00000006
     atom   4 type  2   force =     0.00495885    0.00000001   -0.00000008
     atom   5 type  2   force =     0.00495883   -0.00000007   -0.00000007
     atom   6 type  2   force =     0.00495884   -0.00000006   -0.00000009
     atom   7 type  2   force =     0.00495886    0.00000001   -0.00000006
     atom   8 type  2   force =     0.00495886    0.00000001   -0.00000007
     atom   9 type  2   force =    -0.00247957    0.00429456    0.00000015
     atom  10 type  2   force =    -0.00247957    0.00429455    0.00000014
     atom  11 type  2   force =    -0.00247958    0.00429458    0.00000016
     atom  12 type  2   force =    -0.00247958    0.00429457    0.00000014
     atom  13 type  2   force =    -0.00247952    0.00429455    0.00000017
     atom  14 type  2   force =    -0.00247952    0.00429454    0.00000015
     atom  15 type  2   force =    -0.00247953    0.00429457    0.00000017
     atom  16 type  2   force =    -0.00247953    0.00429456    0.00000016
     atom  17 type  2   force =    -0.00247974   -0.00429491   -0.00000002
     atom  18 type  2   force =    -0.00247974   -0.00429491   -0.00000002
     atom  19 type  2   force =    -0.00247973   -0.00429490   -0.00000003
     atom  20 type  2   force =    -0.00247973   -0.00429490   -0.00000003
     atom  21 type  2   force =    -0.00247973   -0.00429490   -0.00000001
     atom  22 type  2   force =    -0.00247973   -0.00429491   -0.00000001
     atom  23 type  2   force =    -0.00247972   -0.00429489   -0.00000002
     atom  24 type  2   force =    -0.00247972   -0.00429489   -0.00000002
     atom  25 type  1   force =    -0.01587954    0.00364887   -0.00473334
     atom  26 type  1   force =    -0.01587953    0.00364887   -0.00473334
     atom  27 type  1   force =    -0.01587954    0.00364888   -0.00473334
     atom  28 type  1   force =    -0.01587954    0.00364888   -0.00473334
     atom  29 type  1   force =    -0.01587952    0.00364887   -0.00473332
     atom  30 type  1   force =    -0.01587952    0.00364887   -0.00473332
     atom  31 type  1   force =    -0.01587953    0.00364888   -0.00473333
     atom  32 type  1   force =    -0.01587953    0.00364888   -0.00473333
     atom  33 type  1   force =     0.00477987   -0.01557641   -0.00473361
     atom  34 type  1   force =     0.00477988   -0.01557640   -0.00473362
     atom  35 type  1   force =     0.00477987   -0.01557640   -0.00473361
     atom  36 type  1   force =     0.00477988   -0.01557640   -0.00473363
     atom  37 type  1   force =     0.00477988   -0.01557637   -0.00473361
     atom  38 type  1   force =     0.00477989   -0.01557637   -0.00473362
     atom  39 type  1   force =     0.00477988   -0.01557637   -0.00473361
     atom  40 type  1   force =     0.00477989   -0.01557636   -0.00473362
     atom  41 type  1   force =     0.01110003    0.01192780   -0.00473335
     atom  42 type  1   force =     0.01110002    0.01192780   -0.00473335
     atom  43 type  1   force =     0.01110003    0.01192781   -0.00473336
     atom  44 type  1   force =     0.01110003    0.01192781   -0.00473336
     atom  45 type  1   force =     0.01110006    0.01192780   -0.00473333
     atom  46 type  1   force =     0.01110005    0.01192780   -0.00473333
     atom  47 type  1   force =     0.01110006    0.01192782   -0.00473334
     atom  48 type  1   force =     0.01110006    0.01192781   -0.00473334
     atom  49 type  1   force =     0.01109984   -0.01192771    0.00473343
     atom  50 type  1   force =     0.01109984   -0.01192771    0.00473343
     atom  51 type  1   force =     0.01109984   -0.01192770    0.00473342
     atom  52 type  1   force =     0.01109984   -0.01192770    0.00473342
     atom  53 type  1   force =     0.01109986   -0.01192772    0.00473344
     atom  54 type  1   force =     0.01109986   -0.01192772    0.00473344
     atom  55 type  1   force =     0.01109985   -0.01192771    0.00473343
     atom  56 type  1   force =     0.01109985   -0.01192771    0.00473343
     atom  57 type  1   force =    -0.01587960   -0.00364886    0.00473336
     atom  58 type  1   force =    -0.01587960   -0.00364887    0.00473335
     atom  59 type  1   force =    -0.01587956   -0.00364879    0.00473339
     atom  60 type  1   force =    -0.01587956   -0.00364880    0.00473337
     atom  61 type  1   force =    -0.01587960   -0.00364886    0.00473336
     atom  62 type  1   force =    -0.01587960   -0.00364887    0.00473335
     atom  63 type  1   force =    -0.01587955   -0.00364880    0.00473338
     atom  64 type  1   force =    -0.01587955   -0.00364881    0.00473337
     atom  65 type  1   force =     0.00477978    0.01557660    0.00473343
     atom  66 type  1   force =     0.00477978    0.01557660    0.00473343
     atom  67 type  1   force =     0.00477977    0.01557662    0.00473342
     atom  68 type  1   force =     0.00477977    0.01557662    0.00473342
     atom  69 type  1   force =     0.00477978    0.01557661    0.00473345
     atom  70 type  1   force =     0.00477978    0.01557661    0.00473345
     atom  71 type  1   force =     0.00477978    0.01557663    0.00473343
     atom  72 type  1   force =     0.00477978    0.01557663    0.00473343

     Total force =     0.120036     Total SCF correction =     0.000039


     entering subroutine stress ...

          total   stress  (Ry/bohr**3)                   (kbar)     P=  -71.18
  -0.00047148  -0.00000000   0.00000000        -69.36     -0.00      0.00
  -0.00000000  -0.00047148   0.00000000         -0.00    -69.36      0.00
   0.00000000   0.00000000  -0.00050873          0.00      0.00    -74.84


     Writing output data file sio2.save
 
     init_run     :      7.57s CPU      8.16s WALL (       1 calls)
     electrons    :    257.38s CPU    260.92s WALL (       1 calls)
     forces       :      1.13s CPU      1.14s WALL (       8 calls)
     stress       :      3.91s CPU      3.91s WALL (       1 calls)

     Called by init_run:
     wfcinit      :      5.99s CPU      6.08s WALL (       1 calls)
     potinit      :      0.10s CPU      0.11s WALL (       1 calls)

     Called by electrons:
     c_bands      :    220.47s CPU    223.58s WALL (      14 calls)
     sum_band     :     29.96s CPU     30.08s WALL (      14 calls)
     v_of_rho     :      0.30s CPU      0.30s WALL (      15 calls)
     newd         :      5.99s CPU      5.99s WALL (      15 calls)
     mix_rho      :      0.53s CPU      0.53s WALL (      14 calls)

     Called by c_bands:
     init_us_2    :      0.17s CPU      0.23s WALL (     248 calls)
     cegterg      :    219.16s CPU    222.11s WALL (     112 calls)

     Called by *egterg:
     h_psi        :    146.93s CPU    147.46s WALL (     470 calls)
     s_psi        :      4.33s CPU      4.34s WALL (     470 calls)
     g_psi        :      0.07s CPU      0.07s WALL (     350 calls)
     cdiaghg      :     59.64s CPU     62.02s WALL (     462 calls)

     Called by h_psi:
     add_vuspsi   :      4.24s CPU      4.27s WALL (     470 calls)

     General routines
     calbec       :      9.47s CPU      9.55s WALL (     598 calls)
     fft          :      1.34s CPU      1.80s WALL (     261 calls)
     ffts         :      0.42s CPU      0.42s WALL (     380 calls)
     fftw         :    158.27s CPU    158.78s WALL (  166624 calls)
     interpolate  :      0.12s CPU      0.12s WALL (      29 calls)
     davcio       :      0.08s CPU      0.17s WALL (     368 calls)
 
     Parallel routines
     fft_scatter  :    131.23s CPU    132.12s WALL (  167265 calls)
 
     PWSCF        :  4m34.60s CPU     4m39.89s WALL

 
   This run was terminated on:  11:12:17  29Aug2018            

=------------------------------------------------------------------------------=
   JOB DONE.
=------------------------------------------------------------------------------=
