
     Program PWSCF v.4.3        starts on 29Aug2018 at 11:12:21 

     This program is part of the open-source Quantum ESPRESSO suite
     for quantum simulation of materials; please cite
         "P. Giannozzi et al., J. Phys.:Condens. Matter 21 395502 (2009);
          URL http://www.quantum-espresso.org", 
     in publications or presentations arising from this work. More details at
     http://www.quantum-espresso.org/wiki/index.php/Citing_Quantum-ESPRESSO

     Parallel version (MPI), running on    64 processors
     R & G space division:  proc/pool =   64

     Current dimensions of program PWSCF are:
     Max number of different atomic species (ntypx) = **
     Max number of k-points (npk) =  40000
     Max angular momentum in pseudopotentials (lmaxx) =  3
     Waiting for input...

     Atomic positions and unit cell read from directory:
     ./sio2.save/
 

     Subspace diagonalization in iterative solution of the eigenvalue problem:
     parallel, distributed-memory algorithm (size of sub-group:  5*  5 procs)

     Found symmetry operation: I + (  0.0000  0.0000 -0.5000)
     This is a supercell, fractional translation are disabled
 
   Stick Mesh
   ----------
   nst =  4753,  nstw =   595, nsts =  2383
               n.st   n.stw   n.sts    n.g    n.gw   n.gs
   min          74       9      37    4548     201    1595
   max          75      10      38    4553     206    1623
       4753     595    2383  291115   12915  103091
 


     bravais-lattice index     =           14
     lattice parameter (a_0)   =      18.5628  a.u.
     unit-cell volume          =    6094.5942 (a.u.)^3
     number of atoms/cell      =           72
     number of atomic types    =            2
     number of electrons       =       384.00
     number of Kohn-Sham states=          690
     kinetic-energy cutoff     =      25.0000  Ry
     charge density cutoff     =     200.0000  Ry
     Exchange-correlation      =  SLA  PW   PBE  PBE (1434)
     EXX-fraction              =        0.00

     celldm(1)=  18.562780  celldm(2)=   1.000000  celldm(3)=   1.100234
     celldm(4)=   0.000000  celldm(5)=   0.000000  celldm(6)=  -0.500000

     crystal axes: (cart. coord. in units of a_0)
               a(1) = (   1.000000   0.000000   0.000000 )  
               a(2) = (  -0.500000   0.866025   0.000000 )  
               a(3) = (   0.000000   0.000000   1.100234 )  

     reciprocal axes: (cart. coord. in units 2 pi/a_0)
               b(1) = (  1.000000  0.577350  0.000000 )  
               b(2) = (  0.000000  1.154701  0.000000 )  
               b(3) = (  0.000000  0.000000  0.908897 )  


     PseudoPot. # 1 for O  read from file O.pbe-van_bm.UPF
     MD5 check sum: ca2828d9fb1f294809e918903b7648d1
     Pseudo is Ultrasoft, Zval =  6.0
     Generated by new atomic code, or converted to UPF format
     Using radial grid of  737 points,  4 beta functions with: 
                l(1) =   0
                l(2) =   0
                l(3) =   1
                l(4) =   1
     Q(r) pseudized with  8 coefficients,  rinner =    0.800   0.800   0.800


     PseudoPot. # 2 for Si read from file Si.pbe-n-van.UPF
     MD5 check sum: 8a97496598b7338af554a5de8957bfee
     Pseudo is Ultrasoft + core correction, Zval =  4.0
     Generated by new atomic code, or converted to UPF format
     Using radial grid of  899 points,  6 beta functions with: 
                l(1) =   0
                l(2) =   0
                l(3) =   1
                l(4) =   1
                l(5) =   2
                l(6) =   2
     Q(r) pseudized with  8 coefficients,  rinner =    0.900   0.900   0.900
                                                       0.900   0.900

     atomic species   valence    mass     pseudopotential
        O              6.00    15.99900     O ( 1.00)
        Si             4.00    28.08600     Si( 1.00)

     No symmetry found

   Cartesian axes

     site n.     atom                  positions (a_0 units)
         1           Si  tau(  1) = (   0.2348500   0.0000000   0.0916862  )
         2           Si  tau(  2) = (   0.2348500   0.0000000   0.6418033  )
         3           Si  tau(  3) = (  -0.0151500   0.4330127   0.0916862  )
         4           Si  tau(  4) = (  -0.0151500   0.4330127   0.6418033  )
         5           Si  tau(  5) = (   0.7348500   0.0000000   0.0916862  )
         6           Si  tau(  6) = (   0.7348500   0.0000000   0.6418033  )
         7           Si  tau(  7) = (   0.4848500   0.4330127   0.0916862  )
         8           Si  tau(  8) = (   0.4848500   0.4330127   0.6418033  )
         9           Si  tau(  9) = (  -0.1174250   0.2033861   0.4584309  )
        10           Si  tau( 10) = (  -0.1174250   0.2033861   1.0085480  )
        11           Si  tau( 11) = (  -0.3674250   0.6363988   0.4584309  )
        12           Si  tau( 12) = (  -0.3674250   0.6363988   1.0085480  )
        13           Si  tau( 13) = (   0.3825750   0.2033861   0.4584309  )
        14           Si  tau( 14) = (   0.3825750   0.2033861   1.0085480  )
        15           Si  tau( 15) = (   0.1325750   0.6363988   0.4584309  )
        16           Si  tau( 16) = (   0.1325750   0.6363988   1.0085480  )
        17           Si  tau( 17) = (   0.1325750   0.2296266   0.2750585  )
        18           Si  tau( 18) = (   0.1325750   0.2296266   0.8251756  )
        19           Si  tau( 19) = (  -0.1174250   0.6626393   0.2750585  )
        20           Si  tau( 20) = (  -0.1174250   0.6626393   0.8251756  )
        21           Si  tau( 21) = (   0.6325750   0.2296266   0.2750585  )
        22           Si  tau( 22) = (   0.6325750   0.2296266   0.8251756  )
        23           Si  tau( 23) = (   0.3825750   0.6626393   0.2750585  )
        24           Si  tau( 24) = (   0.3825750   0.6626393   0.8251756  )
        25           O   tau( 25) = (   0.1398500   0.1157010   0.1570584  )
        26           O   tau( 26) = (   0.1398500   0.1157010   0.7071755  )
        27           O   tau( 27) = (  -0.1101500   0.5487137   0.1570584  )
        28           O   tau( 28) = (  -0.1101500   0.5487137   0.7071755  )
        29           O   tau( 29) = (   0.6398500   0.1157010   0.1570584  )
        30           O   tau( 30) = (   0.6398500   0.1157010   0.7071755  )
        31           O   tau( 31) = (   0.3898500   0.5487137   0.1570584  )
        32           O   tau( 32) = (   0.3898500   0.5487137   0.7071755  )
        33           O   tau( 33) = (   0.3298750   0.0632632   0.5238031  )
        34           O   tau( 34) = (   0.3298750   0.0632632   1.0739202  )
        35           O   tau( 35) = (   0.0798750   0.4962759   0.5238031  )
        36           O   tau( 36) = (   0.0798750   0.4962759   1.0739202  )
        37           O   tau( 37) = (   0.8298750   0.0632632   0.5238031  )
        38           O   tau( 38) = (   0.8298750   0.0632632   1.0739202  )
        39           O   tau( 39) = (   0.5798750   0.4962759   0.5238031  )
        40           O   tau( 40) = (   0.5798750   0.4962759   1.0739202  )
        41           O   tau( 41) = (   0.2802750   0.2540485   0.3404308  )
        42           O   tau( 42) = (   0.2802750   0.2540485   0.8905478  )
        43           O   tau( 43) = (   0.0302750   0.6870612   0.3404308  )
        44           O   tau( 44) = (   0.0302750   0.6870612   0.8905478  )
        45           O   tau( 45) = (   0.7802750   0.2540485   0.3404308  )
        46           O   tau( 46) = (   0.7802750   0.2540485   0.8905478  )
        47           O   tau( 47) = (   0.5302750   0.6870612   0.3404308  )
        48           O   tau( 48) = (   0.5302750   0.6870612   0.8905478  )
        49           O   tau( 49) = (   0.0302750   0.1789642   0.3930587  )
        50           O   tau( 50) = (   0.0302750   0.1789642   0.9431757  )
        51           O   tau( 51) = (  -0.2197250   0.6119769   0.3930587  )
        52           O   tau( 52) = (  -0.2197250   0.6119769   0.9431757  )
        53           O   tau( 53) = (   0.5302750   0.1789642   0.3930587  )
        54           O   tau( 54) = (   0.5302750   0.1789642   0.9431757  )
        55           O   tau( 55) = (   0.2802750   0.6119769   0.3930587  )
        56           O   tau( 56) = (   0.2802750   0.6119769   0.9431757  )
        57           O   tau( 57) = (  -0.1101500   0.3173117   0.0263139  )
        58           O   tau( 58) = (  -0.1101500   0.3173117   0.5764310  )
        59           O   tau( 59) = (  -0.3601500   0.7503244   0.0263139  )
        60           O   tau( 60) = (  -0.3601500   0.7503244   0.5764310  )
        61           O   tau( 61) = (   0.3898500   0.3173117   0.0263139  )
        62           O   tau( 62) = (   0.3898500   0.3173117   0.5764310  )
        63           O   tau( 63) = (   0.1398500   0.7503244   0.0263139  )
        64           O   tau( 64) = (   0.1398500   0.7503244   0.5764310  )
        65           O   tau( 65) = (   0.0798750   0.3697495   0.2096863  )
        66           O   tau( 66) = (   0.0798750   0.3697495   0.7598034  )
        67           O   tau( 67) = (  -0.1701250   0.8027622   0.2096863  )
        68           O   tau( 68) = (  -0.1701250   0.8027622   0.7598034  )
        69           O   tau( 69) = (   0.5798750   0.3697495   0.2096863  )
        70           O   tau( 70) = (   0.5798750   0.3697495   0.7598034  )
        71           O   tau( 71) = (   0.3298750   0.8027622   0.2096863  )
        72           O   tau( 72) = (   0.3298750   0.8027622   0.7598034  )

     number of k points=     1  Fermi-Dirac smearing, width (Ry)=  0.0019
                       cart. coord. in units 2pi/a_0
        k(    1) = (   0.0000000   0.0000000   0.0000000), wk =   2.0000000

     G cutoff = 1745.6464  ( 291115 G-vectors)     FFT grid: ( 90, 90, 96)
     G cutoff =  872.8232  ( 103091 G-vectors)  smooth grid: ( 60, 60, 72)

     Largest allocated arrays     est. size (Mb)     dimensions
        Kohn-Sham Wavefunctions         2.14 Mb     (    203, 690)
        NL pseudopotentials             2.53 Mb     (    203, 816)
        Each V/rho on FFT grid          0.25 Mb     (  16200)
        Each G-vector array             0.03 Mb     (   4548)
        G-vector shells                 0.02 Mb     (   2311)
     Largest temporary arrays     est. size (Mb)     dimensions
        Auxiliary wavefunctions         8.55 Mb     (    203,2760)
        Each subspace H/S matrix      116.24 Mb     (   2760,2760)
        Each <psi_i|beta_j> matrix      8.59 Mb     (    816, 690)

     The potential is recalculated from file :
     ./sio2.save/charge-density.dat

     Starting wfc are  288 atomic +  402 random wfc

     total cpu time spent up to now is      2.27 secs

     per-process dynamical memory:    54.2 Mb

     Band Structure Calculation
     Davidson diagonalization with overlap

     ethr =  2.60E-12,  avg # of iterations = 59.0

     total cpu time spent up to now is    159.00 secs

     End of band structure calculation

          k = 0.0000 0.0000 0.0000     band energies (ev):

   -16.9915 -16.5266 -16.5266 -16.5026 -16.5026 -16.5026 -16.4351 -16.4351
   -16.4351 -16.0290 -16.0290 -16.0290 -15.9958 -15.9958 -15.9958 -15.5460
   -15.5460 -15.5460 -15.4683 -15.4683 -15.4200 -15.4200 -15.4200 -14.9125
   -14.9125 -14.9125 -14.8890 -14.8890 -14.8890 -14.8522 -14.8522 -14.8522
   -14.8402 -14.8402 -14.8402 -14.8376 -14.8297 -14.8297 -14.8297 -14.8292
   -14.8226 -14.8226 -14.8202 -14.8202 -14.8202 -14.7986 -14.7986 -14.7763
    -6.8066  -5.8509  -5.8509  -5.8509  -5.7032  -5.7032  -5.6993  -5.6993
    -5.6993  -4.8375  -4.8375  -4.8375  -4.7241  -4.7241  -4.7241  -3.8501
    -3.8501  -3.8501  -3.7097  -3.7097  -3.3287  -3.3287  -3.3287  -3.0617
    -3.0617  -2.8794  -2.8794  -2.8794  -2.8684  -2.8558  -2.8558  -2.8558
    -2.8507  -2.7673  -2.7673  -2.7673  -2.6779  -2.6779  -2.4896  -2.4896
    -2.4896  -2.3734  -2.3734  -2.3734  -2.0858  -2.0380  -2.0380  -2.0380
    -0.6710  -0.6710  -0.6710  -0.6513  -0.6513  -0.6513  -0.5448  -0.5448
    -0.5448  -0.3988  -0.3988  -0.3819  -0.3819  -0.3819  -0.1855  -0.1855
    -0.1699  -0.1359  -0.1359  -0.1359  -0.0881   0.0960   0.1139   0.1139
     0.1139   0.2628   0.2628   0.2628   0.4397   0.4397   0.4397   0.4539
     0.4539   0.4539   0.4559   0.4559   0.4559   0.5223   0.5223   0.7152
     0.7152   0.8046   0.8046   0.8046   0.8861   0.8861   0.8861   1.0010
     1.0010   1.0010   1.0055   1.0716   1.0716   1.1095   1.2861   1.2861
     1.2861   1.3343   1.4127   1.4127   1.4127   1.4570   1.4570   1.4570
     1.5330   1.5330   1.5330   1.5583   1.5583   1.6719   1.6719   1.6719
     1.7182   1.7182   1.7182   1.7872   1.7872   1.7872   1.8782   1.9604
     1.9604   1.9604   2.2469   2.2469   2.2971   2.2971   2.2971   2.3450
     2.3450   2.3719   2.3719   2.3719   2.4672   2.5266   2.5266   2.5266
     8.5130  10.4935  10.4935  10.8072  10.8072  10.8072  11.4844  11.4844
    11.4844  11.5661  11.5661  11.5661  11.6037  11.8731  11.8731  11.9615
    11.9615  11.9615  12.2288  12.2288  12.2288  12.2774  12.2774  12.2774
    12.2902  12.2902  12.2902  12.3099  12.3099  12.3448  12.3448  12.3837
    12.3837  12.3837  12.8022  12.8022  12.8022  13.0382  13.0382  13.0382
    13.1028  13.1028  13.1028  13.1695  13.1695  13.1695  13.2458  13.2824
    13.2824  13.2824  13.6191  13.7628  13.7628  13.7628  13.8973  13.8973
    13.8973  14.0021  14.0021  14.0021  14.0599  14.0599  14.0599  14.2476
    14.2599  14.2599  14.3646  14.5161  14.5161  14.5161  14.5522  14.5522
    14.5522  14.5848  14.5848  14.5848  14.8499  15.2426  15.2426  15.2426
    15.2532  15.2532  15.2532  15.2896  15.2896  15.4387  15.4387  15.4387
    15.5482  15.5482  15.5482  15.6077  15.6077  15.9284  15.9284  15.9284
    15.9462  15.9462  16.3205  16.3205  16.3205  16.3272  16.3272  16.7128
    16.7128  16.7128  16.7536  16.8946  16.9118  16.9830  16.9830  16.9830
    17.3298  17.3298  17.3298  17.4409  17.5444  17.5444  17.6167  17.6167
    17.6456  17.6456  17.6456  17.7474  17.7474  17.7474  17.9176  17.9176
    17.9176  18.0988  18.0988  18.0988  18.1944  18.1944  18.1944  18.2236
    18.2693  18.2693  18.4992  18.4992  18.4992  18.7383  18.9618  18.9618
    18.9618  19.2072  19.2072  19.2072  19.2219  19.2219  19.2219  19.2367
    19.2367  19.5559  19.5559  19.5559  19.6970  19.6970  19.6970  19.8000
    20.1804  20.1804  20.1804  20.4248  20.4248  20.4478  20.8058  20.8058
    20.8058  20.9192  20.9192  20.9192  21.1470  21.1470  21.3166  21.3166
    21.3166  21.6874  21.6874  21.6874  21.7484  21.7484  21.7484  21.8295
    21.8295  21.8295  22.1770  22.1770  22.1770  22.2427  22.2427  22.2427
    22.3585  22.3585  22.3585  22.4778  22.4778  22.5273  22.5273  22.9900
    22.9900  22.9900  23.0162  23.0162  23.0162  23.1957  23.1957  23.1957
    23.4222  23.7425  23.7425  23.8930  23.8930  23.8930  24.1094  24.1094
    24.1094  24.1111  24.1111  24.1541  24.1541  24.1541  24.4267  24.6037
    24.6037  24.6304  24.6304  24.6304  24.6576  24.7642  24.7642  24.7642
    24.8388  25.0040  25.0040  25.0040  25.0065  25.6110  25.6110  25.6110
    25.8247  25.8247  25.8247  25.9333  25.9333  25.9333  26.2371  26.2371
    26.2532  26.2532  26.4140  26.5028  26.5028  26.5028  26.6182  26.6182
    26.6182  26.6231  26.6619  26.6619  26.6619  27.1274  27.1274  27.1274
    27.2040  27.2040  27.2040  27.2825  27.2825  27.2825  27.3947  27.3947
    27.3947  27.4120  27.4120  27.4120  27.4122  27.4439  27.5510  27.5510
    27.6128  27.6128  27.6128  28.0557  28.0557  28.0557  28.1291  28.1291
    28.1915  28.3073  28.3073  28.3073  28.4113  28.4113  28.4113  28.7685
    28.7685  28.7685  28.8009  28.8009  28.8009  29.1075  29.1075  29.4338
    29.4338  29.4338  29.5358  29.5358  29.5358  29.9025  29.9025  29.9383
    29.9383  29.9383  29.9708  29.9966  29.9966  29.9966  30.0357  30.0366
    30.4218  30.4218  30.4218  30.5825  30.5825  30.5886  30.6210  30.6210
    30.6210  30.7570  30.7570  30.7570  30.8528  30.8528  31.0017  31.0017
    31.0017  31.0825  31.0825  31.1668  31.1668  31.1668  31.3143  31.3143
    31.4393  31.4942  31.4942  31.4942  31.7497  31.7497  31.7497  31.8737
    31.8737  31.8737  32.3416  32.3416  32.3416  32.3840  32.3840  32.3840
    32.6315  32.6548  32.6548  32.6549  32.7723  32.7723  32.7723  32.8456
    32.8456  32.8766  32.8766  32.9187  32.9187  32.9187  32.9855  33.3774
    33.3774  33.3774  33.5022  33.6306  33.6306  33.6306  33.6418  33.6418
    33.6418  33.7008  33.7008  33.8162  33.8162  33.9162  33.9162  33.9162
    34.0052  34.0052  34.0052  34.0324  34.0324  34.0324  34.1643  34.1643
    34.1643  34.2496  34.2496  34.2496  34.4065  34.4065  34.8698  34.8698
    34.8698  34.8701  34.8701  34.8995  34.8995  34.8995  34.9418  34.9418
    34.9418  34.9885  35.0044  35.0965  35.1906  35.1906  35.1906  35.3269
    35.3269  35.3333  35.4235  35.6714  35.6714  35.6714  35.7631  35.7631
    35.9624  35.9624  35.9624  36.2134  36.2311  36.2311  36.2311  36.3697
    36.3697  36.3697  36.3765  36.3765  36.5178  36.5178  36.5178  36.5800
    36.5800  36.5800  36.6337  36.6337  36.6337  36.9273  36.9273  36.9273
    36.9328  37.0272  37.0272  37.0272  37.1520  37.1520  37.1520  37.3445
    37.3445  37.3445  37.4693  37.5268  37.5268  37.5268  37.6855  37.6855
    37.6855  37.7166  37.7166  37.9647  37.9647  37.9647  38.0541  38.0541
    38.0541  38.1520  38.1520  38.1906  38.1906  38.1906  38.4367  38.4389
    38.4389  38.4389  38.5459  38.5459  38.5468  38.5468  38.5468  38.6933
    38.6933  38.6933

     the Fermi energy is     3.8774 ev

     Writing output data file sio2.save
 
     init_run     :      1.54s CPU      2.06s WALL (       1 calls)
     electrons    :    156.21s CPU    156.91s WALL (       1 calls)

     Called by init_run:
     wfcinit      :      0.00s CPU      0.00s WALL (       1 calls)
     potinit      :      0.07s CPU      0.08s WALL (       1 calls)

     Called by electrons:
     c_bands      :    156.02s CPU    156.72s WALL (       1 calls)
     v_of_rho     :      0.02s CPU      0.02s WALL (       1 calls)
     newd         :      0.46s CPU      0.46s WALL (       1 calls)

     Called by c_bands:
     init_us_2    :      0.00s CPU      0.00s WALL (       1 calls)
     cegterg      :    154.06s CPU    154.71s WALL (       3 calls)

     Called by *egterg:
     h_psi        :     27.65s CPU     27.75s WALL (      63 calls)
     s_psi        :      0.88s CPU      0.88s WALL (      63 calls)
     g_psi        :      0.02s CPU      0.02s WALL (      59 calls)
     cdiaghg      :    116.03s CPU    116.55s WALL (      60 calls)

     Called by h_psi:
     add_vuspsi   :      0.85s CPU      0.85s WALL (      63 calls)

     General routines
     calbec       :      1.29s CPU      1.30s WALL (      63 calls)
     fft          :      0.75s CPU      1.24s WALL (      13 calls)
     ffts         :      0.00s CPU      0.00s WALL (       1 calls)
     fftw         :     25.21s CPU     25.29s WALL (   27020 calls)
     interpolate  :      0.01s CPU      0.01s WALL (       1 calls)
     davcio       :      0.00s CPU      0.01s WALL (       3 calls)
 
     Parallel routines
     fft_scatter  :     21.38s CPU     21.93s WALL (   27034 calls)
 
     PWSCF        :  2m39.66s CPU     2m41.28s WALL

 
   This run was terminated on:  11:15: 2  29Aug2018            

=------------------------------------------------------------------------------=
   JOB DONE.
=------------------------------------------------------------------------------=
