
     Program PWSCF v.4.3        starts on  4Sep2018 at 18:31:54 

     This program is part of the open-source Quantum ESPRESSO suite
     for quantum simulation of materials; please cite
         "P. Giannozzi et al., J. Phys.:Condens. Matter 21 395502 (2009);
          URL http://www.quantum-espresso.org", 
     in publications or presentations arising from this work. More details at
     http://www.quantum-espresso.org/wiki/index.php/Citing_Quantum-ESPRESSO

     Parallel version (MPI), running on    32 processors
     R & G space division:  proc/pool =   32

     Current dimensions of program PWSCF are:
     Max number of different atomic species (ntypx) = **
     Max number of k-points (npk) =  40000
     Max angular momentum in pseudopotentials (lmaxx) =  3
     Waiting for input...

     Subspace diagonalization in iterative solution of the eigenvalue problem:
     parallel, distributed-memory algorithm (size of sub-group:  4*  4 procs)

 
   Stick Mesh
   ----------
   nst = 12187,  nstw =  1523, nsts =  6097
               n.st   n.stw   n.sts    n.g    n.gw   n.gs
   min         380      47     190   21600     953    7620
   max         381      48     191   21605     956    7645
      12187    1523    6097  691275   30529  244257
 


     bravais-lattice index     =           14
     lattice parameter (a_0)   =      27.0483  a.u.
     unit-cell volume          =   14469.9029 (a.u.)^3
     number of atoms/cell      =           12
     number of atomic types    =            2
     number of electrons       =        30.00
     number of Kohn-Sham states=           19
     kinetic-energy cutoff     =      25.0000  Ry
     charge density cutoff     =     200.0000  Ry
     convergence threshold     =      1.0E-08
     mixing beta               =       0.3000
     number of iterations used =            8  local-TF  mixing
     Exchange-correlation      =  SLA  PW   PBE  PBE (1434)
     EXX-fraction              =        0.00

     celldm(1)=  27.048255  celldm(2)=   1.046618  celldm(3)=   0.698650
     celldm(4)=   0.000000  celldm(5)=   0.000000  celldm(6)=   0.000000

     crystal axes: (cart. coord. in units of a_0)
               a(1) = (   1.000000   0.000000   0.000000 )  
               a(2) = (   0.000000   1.046618   0.000000 )  
               a(3) = (   0.000000   0.000000   0.698650 )  

     reciprocal axes: (cart. coord. in units 2 pi/a_0)
               b(1) = (  1.000000  0.000000  0.000000 )  
               b(2) = (  0.000000  0.955458  0.000000 )  
               b(3) = (  0.000000  0.000000  1.431332 )  


     PseudoPot. # 1 for C  read from file C.pbe-van-yufengl.UPF
     MD5 check sum: 53b91e9bc0fbd261922308fb0e321ce8
     Pseudo is Ultrasoft, Zval =  4.0
     Generated by new atomic code, or converted to UPF format
     Using radial grid of  745 points,  4 beta functions with: 
                l(1) =   0
                l(2) =   0
                l(3) =   1
                l(4) =   1
     Q(r) pseudized with  8 coefficients,  rinner =    0.800   0.800   0.800


     PseudoPot. # 2 for H  read from file H.pbe-van_bm.UPF
     MD5 check sum: b5ee9d7bfd3a09ee7748110bda690ff7
     Pseudo is Ultrasoft, Zval =  1.0
     Generated by new atomic code, or converted to UPF format
     Using radial grid of  615 points,  1 beta functions with: 
                l(1) =   0
     Q(r) pseudized with  8 coefficients,  rinner =    0.800

     atomic species   valence    mass     pseudopotential
        C              4.00    12.00000     C ( 1.00)
        H              1.00     1.00790     H ( 1.00)

      8 Sym.Ops. (with inversion)


   Cartesian axes

     site n.     atom                  positions (a_0 units)
         1           C   tau(  1) = (   0.0000000   0.0980010   0.0000000  )
         2           H   tau(  2) = (   0.0000000   0.1739841   0.0000000  )
         3           C   tau(  3) = (  -0.0848713   0.0490005   0.0000000  )
         4           H   tau(  4) = (  -0.1506750   0.0869924   0.0000000  )
         5           C   tau(  5) = (  -0.0848713  -0.0490005   0.0000000  )
         6           H   tau(  6) = (  -0.1506750  -0.0869924   0.0000000  )
         7           C   tau(  7) = (   0.0000000  -0.0980010   0.0000000  )
         8           H   tau(  8) = (   0.0000000  -0.1739841   0.0000000  )
         9           C   tau(  9) = (   0.0848713  -0.0490005   0.0000000  )
        10           H   tau( 10) = (   0.1506750  -0.0869924   0.0000000  )
        11           C   tau( 11) = (   0.0848713   0.0490005   0.0000000  )
        12           H   tau( 12) = (   0.1506750   0.0869924   0.0000000  )

     number of k points=     1  Fermi-Dirac smearing, width (Ry)=  0.0019
                       cart. coord. in units 2pi/a_0
        k(    1) = (   0.0000000   0.0000000   0.0000000), wk =   2.0000000

     G cutoff = 3706.3699  ( 691275 G-vectors)     FFT grid: (125,128, 90)
     G cutoff = 1853.1849  ( 244257 G-vectors)  smooth grid: ( 90, 96, 64)

     Largest allocated arrays     est. size (Mb)     dimensions
        Kohn-Sham Wavefunctions         0.28 Mb     (    956,  19)
        NL pseudopotentials             0.79 Mb     (    956,  54)
        Each V/rho on FFT grid          0.73 Mb     (  48000)
        Each G-vector array             0.16 Mb     (  21605)
        G-vector shells                 0.08 Mb     (  10662)
     Largest temporary arrays     est. size (Mb)     dimensions
        Auxiliary wavefunctions         1.11 Mb     (    956,  76)
        Each subspace H/S matrix        0.09 Mb     (     76,  76)
        Each <psi_i|beta_j> matrix      0.02 Mb     (     54,  19)
        Arrays for rho mixing           5.86 Mb     (  48000,   8)

     Initial potential from superposition of free atoms
     Check: negative starting charge=   -0.006451

     starting charge   29.99970, renormalised to   30.00000

     negative rho (up, down):  0.645E-02 0.000E+00
     Starting wfc are   36 atomic wfcs

     total cpu time spent up to now is      1.58 secs

     per-process dynamical memory:    63.9 Mb

     Self-consistent Calculation

     iteration #  1     ecut=    25.00 Ry     beta=0.30
     Davidson diagonalization with overlap
     ethr =  1.00E-02,  avg # of iterations =  2.0

     negative rho (up, down):  0.131E-04 0.000E+00

     total cpu time spent up to now is      2.75 secs

     total energy              =     -75.72822247 Ry
     Harris-Foulkes estimate   =     -75.92508044 Ry
     estimated scf accuracy    <       1.44888808 Ry

     iteration #  2     ecut=    25.00 Ry     beta=0.30
     Davidson diagonalization with overlap
     ethr =  4.83E-03,  avg # of iterations =  1.0

     negative rho (up, down):  0.578E-05 0.000E+00

     total cpu time spent up to now is      3.45 secs

     total energy              =     -75.26519027 Ry
     Harris-Foulkes estimate   =     -75.73853368 Ry
     estimated scf accuracy    <       0.96337031 Ry

     iteration #  3     ecut=    25.00 Ry     beta=0.30
     Davidson diagonalization with overlap
     ethr =  3.21E-03,  avg # of iterations =  2.0

     total cpu time spent up to now is      4.18 secs

     total energy              =     -75.39001199 Ry
     Harris-Foulkes estimate   =     -75.39752413 Ry
     estimated scf accuracy    <       0.10161602 Ry

     iteration #  4     ecut=    25.00 Ry     beta=0.30
     Davidson diagonalization with overlap
     ethr =  3.39E-04,  avg # of iterations =  9.0

     negative rho (up, down):  0.561E-03 0.000E+00

     total cpu time spent up to now is      4.91 secs

     total energy              =     -75.35958007 Ry
     Harris-Foulkes estimate   =     -75.39665031 Ry
     estimated scf accuracy    <       0.08175194 Ry

     iteration #  5     ecut=    25.00 Ry     beta=0.30
     Davidson diagonalization with overlap
     ethr =  2.73E-04,  avg # of iterations =  6.0

     negative rho (up, down):  0.299E-05 0.000E+00

     total cpu time spent up to now is      5.72 secs

     total energy              =     -75.36496604 Ry
     Harris-Foulkes estimate   =     -75.36295865 Ry
     estimated scf accuracy    <       0.03351094 Ry

     iteration #  6     ecut=    25.00 Ry     beta=0.30
     Davidson diagonalization with overlap
     ethr =  1.12E-04,  avg # of iterations =  1.0

     negative rho (up, down):  0.155E+00 0.000E+00

     total cpu time spent up to now is      6.44 secs

     total energy              =     -75.35121876 Ry
     Harris-Foulkes estimate   =     -75.36528830 Ry
     estimated scf accuracy    <       0.02742376 Ry

     iteration #  7     ecut=    25.00 Ry     beta=0.30
     Davidson diagonalization with overlap
     ethr =  9.14E-05,  avg # of iterations =  2.0

     negative rho (up, down):  0.592E-01 0.000E+00

     total cpu time spent up to now is      7.26 secs

     total energy              =     -75.35440995 Ry
     Harris-Foulkes estimate   =     -75.35891879 Ry
     estimated scf accuracy    <       0.00767523 Ry

     iteration #  8     ecut=    25.00 Ry     beta=0.30
     Davidson diagonalization with overlap
     ethr =  2.56E-05,  avg # of iterations =  4.0

     negative rho (up, down):  0.593E-01 0.000E+00

     total cpu time spent up to now is      8.39 secs

     total energy              =     -75.35554222 Ry
     Harris-Foulkes estimate   =     -75.35574659 Ry
     estimated scf accuracy    <       0.00223419 Ry

     iteration #  9     ecut=    25.00 Ry     beta=0.30
     Davidson diagonalization with overlap
     ethr =  7.45E-06,  avg # of iterations =  5.0

     negative rho (up, down):  0.252E-01 0.000E+00

     total cpu time spent up to now is      9.30 secs

     total energy              =     -75.35517516 Ry
     Harris-Foulkes estimate   =     -75.35569159 Ry
     estimated scf accuracy    <       0.00133468 Ry

     iteration # 10     ecut=    25.00 Ry     beta=0.30
     Davidson diagonalization with overlap
     ethr =  4.45E-06,  avg # of iterations = 15.0

     negative rho (up, down):  0.192E-01 0.000E+00

     total cpu time spent up to now is     10.47 secs

     total energy              =     -75.35484324 Ry
     Harris-Foulkes estimate   =     -75.35519370 Ry
     estimated scf accuracy    <       0.00082252 Ry

     iteration # 11     ecut=    25.00 Ry     beta=0.30
     Davidson diagonalization with overlap
     ethr =  2.74E-06,  avg # of iterations =  7.0

     negative rho (up, down):  0.119E-01 0.000E+00

     total cpu time spent up to now is     11.72 secs

     total energy              =     -75.35501506 Ry
     Harris-Foulkes estimate   =     -75.35501519 Ry
     estimated scf accuracy    <       0.00001764 Ry

     iteration # 12     ecut=    25.00 Ry     beta=0.30
     Davidson diagonalization with overlap
     ethr =  5.88E-08,  avg # of iterations = 14.0

     negative rho (up, down):  0.108E-01 0.000E+00

     total cpu time spent up to now is     12.92 secs

     total energy              =     -75.35501597 Ry
     Harris-Foulkes estimate   =     -75.35501967 Ry
     estimated scf accuracy    <       0.00000950 Ry

     iteration # 13     ecut=    25.00 Ry     beta=0.30
     Davidson diagonalization with overlap
     ethr =  3.17E-08,  avg # of iterations =  2.0

     negative rho (up, down):  0.109E-01 0.000E+00

     total cpu time spent up to now is     13.82 secs

     total energy              =     -75.35501771 Ry
     Harris-Foulkes estimate   =     -75.35501730 Ry
     estimated scf accuracy    <       0.00000031 Ry

     iteration # 14     ecut=    25.00 Ry     beta=0.30
     Davidson diagonalization with overlap
     ethr =  1.04E-09,  avg # of iterations =  3.0

     negative rho (up, down):  0.109E-01 0.000E+00

     total cpu time spent up to now is     14.91 secs

     total energy              =     -75.35501787 Ry
     Harris-Foulkes estimate   =     -75.35501796 Ry
     estimated scf accuracy    <       0.00000063 Ry

     iteration # 15     ecut=    25.00 Ry     beta=0.30
     Davidson diagonalization with overlap
     ethr =  1.04E-09,  avg # of iterations =  2.0

     negative rho (up, down):  0.109E-01 0.000E+00

     total cpu time spent up to now is     16.03 secs

     total energy              =     -75.35501802 Ry
     Harris-Foulkes estimate   =     -75.35501795 Ry
     estimated scf accuracy    <       0.00000004 Ry

     iteration # 16     ecut=    25.00 Ry     beta=0.30
     Davidson diagonalization with overlap
     ethr =  1.19E-10,  avg # of iterations =  2.0

     negative rho (up, down):  0.110E-01 0.000E+00

     total cpu time spent up to now is     16.92 secs

     total energy              =     -75.35501804 Ry
     Harris-Foulkes estimate   =     -75.35501804 Ry
     estimated scf accuracy    <       0.00000001 Ry

     iteration # 17     ecut=    25.00 Ry     beta=0.30
     Davidson diagonalization with overlap
     ethr =  4.85E-11,  avg # of iterations =  2.0

     negative rho (up, down):  0.110E-01 0.000E+00

     total cpu time spent up to now is     17.30 secs

     End of self-consistent calculation

          k = 0.0000 0.0000 0.0000 ( 30529 PWs)   bands (ev):

   -20.8200 -18.0757 -18.0757 -14.4783 -14.4782 -12.5136 -10.8898 -10.5231
    -9.8700  -9.8696  -8.6889  -7.8977  -7.8972  -5.9890  -5.9887  -0.9314
    -0.9307  -0.5013   0.2803

     the Fermi energy is    -4.9690 ev

!    total energy              =     -75.35501807 Ry
     Harris-Foulkes estimate   =     -75.35501804 Ry
     estimated scf accuracy    <          2.4E-09 Ry

     The total energy is the sum of the following terms:

     one-electron contribution =    -320.72954786 Ry
     hartree contribution      =     163.68148849 Ry
     xc contribution           =     -25.03326729 Ry
     ewald contribution        =     106.72630858 Ry
     smearing contrib. (-TS)   =       0.00000000 Ry

     convergence has been achieved in  17 iterations
 forces --- starting time for forces:
     forces       :      0.00s CPU      0.00s WALL (       1 calls)

     Forces acting on atoms (Ry/au):

 forces --- nonlocal contribution:
     forces       :      0.09s CPU      0.09s WALL (       2 calls)
 forces --- local contribution:
     forces       :      0.10s CPU      0.10s WALL (       3 calls)
 forces --- NLCC contribution:
     forces       :      0.10s CPU      0.10s WALL (       4 calls)
 forces --- Hubbard contribution:
     forces       :      0.10s CPU      0.10s WALL (       5 calls)
 forces --- ionic contribution:
     forces       :      0.10s CPU      0.10s WALL (       6 calls)
 forces --- SCF contribution:
     forces       :      0.25s CPU      0.25s WALL (       7 calls)
     atom   1 type  1   force =     0.00000000   -0.01239883    0.00000000
     atom   2 type  2   force =     0.00000000    0.00807245    0.00000000
     atom   3 type  1   force =     0.01072775   -0.00617694    0.00000000
     atom   4 type  2   force =    -0.00698564    0.00403553    0.00000000
     atom   5 type  1   force =     0.01072775    0.00617694    0.00000000
     atom   6 type  2   force =    -0.00698564   -0.00403553   -0.00000000
     atom   7 type  1   force =     0.00000000    0.01239883    0.00000000
     atom   8 type  2   force =     0.00000000   -0.00807245    0.00000000
     atom   9 type  1   force =    -0.01072775    0.00617694    0.00000000
     atom  10 type  2   force =     0.00698564   -0.00403553    0.00000000
     atom  11 type  1   force =    -0.01072775   -0.00617694    0.00000000
     atom  12 type  2   force =     0.00698564    0.00403553   -0.00000000

     Total force =     0.036209     Total SCF correction =     0.000028


     entering subroutine stress ...

          total   stress  (Ry/bohr**3)                   (kbar)     P=   -1.88
  -0.00001224   0.00000000   0.00000000         -1.80      0.00      0.00
   0.00000000  -0.00001238   0.00000000          0.00     -1.82      0.00
   0.00000000   0.00000000  -0.00001381          0.00      0.00     -2.03


     Writing output data file benzene.save
 
     init_run     :      1.27s CPU      1.42s WALL (       1 calls)
     electrons    :     14.90s CPU     15.72s WALL (       1 calls)
     forces       :      0.25s CPU      0.25s WALL (       8 calls)
     stress       :      0.55s CPU      0.55s WALL (       1 calls)

     Called by init_run:
     wfcinit      :      0.11s CPU      0.12s WALL (       1 calls)
     potinit      :      0.28s CPU      0.30s WALL (       1 calls)

     Called by electrons:
     c_bands      :      2.09s CPU      2.31s WALL (      17 calls)
     sum_band     :      1.46s CPU      1.48s WALL (      17 calls)
     v_of_rho     :      0.93s CPU      0.97s WALL (      18 calls)
     newd         :      1.71s CPU      1.72s WALL (      18 calls)
     mix_rho      :      7.61s CPU      7.66s WALL (      17 calls)

     Called by c_bands:
     init_us_2    :      0.01s CPU      0.01s WALL (      35 calls)
     cegterg      :      2.06s CPU      2.27s WALL (      17 calls)

     Called by *egterg:
     h_psi        :      1.48s CPU      1.49s WALL (      97 calls)
     s_psi        :      0.02s CPU      0.02s WALL (      97 calls)
     g_psi        :      0.00s CPU      0.00s WALL (      79 calls)
     cdiaghg      :      0.50s CPU      0.70s WALL (      96 calls)

     Called by h_psi:
     add_vuspsi   :      0.02s CPU      0.02s WALL (      97 calls)

     General routines
     calbec       :      0.04s CPU      0.05s WALL (     116 calls)
     fft          :      1.41s CPU      1.47s WALL (     292 calls)
     ffts         :      5.36s CPU      5.39s WALL (    5159 calls)
     fftw         :      1.62s CPU      1.63s WALL (    2121 calls)
     interpolate  :      0.23s CPU      0.24s WALL (      35 calls)
     davcio       :      0.00s CPU      0.00s WALL (      18 calls)
 
     Parallel routines
     fft_scatter  :      4.31s CPU      4.40s WALL (    7572 calls)
 
     PWSCF        :    17.40s CPU        18.58s WALL

 
   This run was terminated on:  18:32:12   4Sep2018            

=------------------------------------------------------------------------------=
   JOB DONE.
=------------------------------------------------------------------------------=
