
     Program PWSCF v.4.3        starts on  4Sep2018 at 18:32:14 

     This program is part of the open-source Quantum ESPRESSO suite
     for quantum simulation of materials; please cite
         "P. Giannozzi et al., J. Phys.:Condens. Matter 21 395502 (2009);
          URL http://www.quantum-espresso.org", 
     in publications or presentations arising from this work. More details at
     http://www.quantum-espresso.org/wiki/index.php/Citing_Quantum-ESPRESSO

     Parallel version (MPI), running on    32 processors
     R & G space division:  proc/pool =   32

     Current dimensions of program PWSCF are:
     Max number of different atomic species (ntypx) = **
     Max number of k-points (npk) =  40000
     Max angular momentum in pseudopotentials (lmaxx) =  3
     Waiting for input...

     Atomic positions and unit cell read from directory:
     ./benzene.save/
 

     Subspace diagonalization in iterative solution of the eigenvalue problem:
     parallel, distributed-memory algorithm (size of sub-group:  4*  4 procs)

 
   Stick Mesh
   ----------
   nst = 12187,  nstw =  1523, nsts =  6097
               n.st   n.stw   n.sts    n.g    n.gw   n.gs
   min         380      47     190   21600     953    7620
   max         381      48     191   21605     956    7645
      12187    1523    6097  691275   30529  244257
 


     bravais-lattice index     =           14
     lattice parameter (a_0)   =      27.0483  a.u.
     unit-cell volume          =   14469.9029 (a.u.)^3
     number of atoms/cell      =           12
     number of atomic types    =            2
     number of electrons       =        30.00
     number of Kohn-Sham states=          570
     kinetic-energy cutoff     =      25.0000  Ry
     charge density cutoff     =     200.0000  Ry
     Exchange-correlation      =  SLA  PW   PBE  PBE (1434)
     EXX-fraction              =        0.00

     celldm(1)=  27.048255  celldm(2)=   1.046618  celldm(3)=   0.698650
     celldm(4)=   0.000000  celldm(5)=   0.000000  celldm(6)=   0.000000

     crystal axes: (cart. coord. in units of a_0)
               a(1) = (   1.000000   0.000000   0.000000 )  
               a(2) = (   0.000000   1.046618   0.000000 )  
               a(3) = (   0.000000   0.000000   0.698650 )  

     reciprocal axes: (cart. coord. in units 2 pi/a_0)
               b(1) = (  1.000000  0.000000  0.000000 )  
               b(2) = (  0.000000  0.955458  0.000000 )  
               b(3) = (  0.000000  0.000000  1.431332 )  


     PseudoPot. # 1 for C  read from file C.pbe-van-yufengl.UPF
     MD5 check sum: 53b91e9bc0fbd261922308fb0e321ce8
     Pseudo is Ultrasoft, Zval =  4.0
     Generated by new atomic code, or converted to UPF format
     Using radial grid of  745 points,  4 beta functions with: 
                l(1) =   0
                l(2) =   0
                l(3) =   1
                l(4) =   1
     Q(r) pseudized with  8 coefficients,  rinner =    0.800   0.800   0.800


     PseudoPot. # 2 for H  read from file H.pbe-van_bm.UPF
     MD5 check sum: b5ee9d7bfd3a09ee7748110bda690ff7
     Pseudo is Ultrasoft, Zval =  1.0
     Generated by new atomic code, or converted to UPF format
     Using radial grid of  615 points,  1 beta functions with: 
                l(1) =   0
     Q(r) pseudized with  8 coefficients,  rinner =    0.800

     atomic species   valence    mass     pseudopotential
        C              4.00    12.00000     C ( 1.00)
        H              1.00     1.00790     H ( 1.00)

      8 Sym.Ops. (with inversion)


   Cartesian axes

     site n.     atom                  positions (a_0 units)
         1           C   tau(  1) = (   0.0000000   0.0980010   0.0000000  )
         2           H   tau(  2) = (   0.0000000   0.1739841   0.0000000  )
         3           C   tau(  3) = (  -0.0848713   0.0490005   0.0000000  )
         4           H   tau(  4) = (  -0.1506750   0.0869924   0.0000000  )
         5           C   tau(  5) = (  -0.0848713  -0.0490005   0.0000000  )
         6           H   tau(  6) = (  -0.1506750  -0.0869924   0.0000000  )
         7           C   tau(  7) = (   0.0000000  -0.0980010   0.0000000  )
         8           H   tau(  8) = (   0.0000000  -0.1739841   0.0000000  )
         9           C   tau(  9) = (   0.0848713  -0.0490005   0.0000000  )
        10           H   tau( 10) = (   0.1506750  -0.0869924   0.0000000  )
        11           C   tau( 11) = (   0.0848713   0.0490005   0.0000000  )
        12           H   tau( 12) = (   0.1506750   0.0869924   0.0000000  )

     number of k points=     1  Fermi-Dirac smearing, width (Ry)=  0.0019
                       cart. coord. in units 2pi/a_0
        k(    1) = (   0.0000000   0.0000000   0.0000000), wk =   2.0000000

     G cutoff = 3706.3699  ( 691275 G-vectors)     FFT grid: (125,128, 90)
     G cutoff = 1853.1849  ( 244257 G-vectors)  smooth grid: ( 90, 96, 64)

     Largest allocated arrays     est. size (Mb)     dimensions
        Kohn-Sham Wavefunctions         8.31 Mb     (    956, 570)
        NL pseudopotentials             0.79 Mb     (    956,  54)
        Each V/rho on FFT grid          0.73 Mb     (  48000)
        Each G-vector array             0.16 Mb     (  21605)
        G-vector shells                 0.08 Mb     (  10662)
     Largest temporary arrays     est. size (Mb)     dimensions
        Auxiliary wavefunctions        33.26 Mb     (    956,2280)
        Each subspace H/S matrix       79.32 Mb     (   2280,2280)
        Each <psi_i|beta_j> matrix      0.47 Mb     (     54, 570)

     The potential is recalculated from file :
     ./benzene.save/charge-density.dat


     negative rho (up, down):  0.110E-01 0.000E+00
     Starting wfc are   36 atomic +  534 random wfc

     total cpu time spent up to now is      1.32 secs

     per-process dynamical memory:    70.1 Mb

     Band Structure Calculation
     Davidson diagonalization with overlap

     ethr =  3.33E-11,  avg # of iterations = 22.0

     total cpu time spent up to now is    109.51 secs

     End of band structure calculation

          k = 0.0000 0.0000 0.0000     band energies (ev):

   -20.8202 -18.0759 -18.0758 -14.4785 -14.4784 -12.5137 -10.8899 -10.5233
    -9.8701  -9.8697  -8.6890  -7.8978  -7.8973  -5.9891  -5.9888  -0.9315
    -0.9308  -0.5016   0.1466   0.1992   0.2797   0.3510   0.7819   0.7962
     0.9572   0.9697   1.0042   1.1536   1.6372   1.6414   1.6596   1.7018
     1.7043   1.7078   1.7762   1.9009   2.1509   2.1683   2.1921   2.3054
     2.3992   2.4273   2.4665   2.4729   2.5105   2.5507   2.6089   2.7306
     2.8203   2.8667   2.9419   2.9473   3.0295   3.0595   3.0942   3.1120
     3.3046   3.6245   3.7167   3.7296   3.7989   3.8509   3.9168   3.9205
     3.9862   4.1013   4.2389   4.3328   4.3788   4.4038   4.4232   4.4434
     4.4529   4.5433   4.5483   4.6023   4.6652   4.6659   4.7144   4.7463
     4.7583   4.8255   4.9341   5.0694   5.1650   5.1815   5.1837   5.2707
     5.4196   5.6766   5.7147   5.8258   5.8477   5.9546   5.9730   5.9908
     6.0798   6.1169   6.1894   6.2149   6.2356   6.2850   6.3012   6.3221
     6.3451   6.5143   6.5582   6.6030   6.6110   6.6232   6.6857   6.7034
     6.7211   6.7526   6.8069   6.8379   6.8732   6.8753   6.8761   6.8881
     6.8905   6.8957   6.9207   7.0826   7.0845   7.1705   7.2816   7.2954
     7.4641   7.4679   7.4982   7.5233   7.5920   7.6136   7.6785   7.7185
     7.7221   7.7555   7.7738   7.8204   7.8938   7.9039   7.9164   7.9570
     8.0449   8.0723   8.1347   8.1380   8.2792   8.2804   8.2932   8.3357
     8.3738   8.3747   8.3956   8.4494   8.4892   8.5971   8.6052   8.6269
     8.6558   8.6876   8.7014   8.7093   8.8053   8.8228   8.8317   8.9364
     8.9552   8.9783   9.0058   9.0312   9.0882   9.1047   9.1263   9.1362
     9.1605   9.1789   9.2195   9.2585   9.3688   9.5131   9.5597   9.5733
     9.8365   9.8424   9.8751   9.9413  10.0031  10.0339  10.0543  10.2004
    10.2583  10.2707  10.2887  10.3342  10.3622  10.3681  10.4214  10.4647
    10.5205  10.5590  10.5666  10.6703  10.7358  10.8447  10.8634  10.9003
    10.9627  10.9871  11.0299  11.0496  11.0844  11.1463  11.1933  11.3688
    11.3879  11.5621  11.5655  11.6469  11.6482  11.6691  11.6789  11.7022
    11.7171  11.7377  11.8128  11.9009  11.9259  11.9563  11.9575  11.9807
    12.0095  12.0942  12.1054  12.1100  12.1299  12.1354  12.2146  12.2558
    12.3065  12.3387  12.3605  12.3857  12.3932  12.4237  12.4665  12.5005
    12.5246  12.5269  12.5357  12.5396  12.5601  12.6322  12.7053  12.7156
    12.7348  12.7415  12.7867  12.8762  12.9023  12.9088  12.9170  12.9578
    12.9860  13.0076  13.0606  13.0638  13.0917  13.1288  13.2123  13.2436
    13.2438  13.2465  13.3508  13.3544  13.3761  13.3787  13.4426  13.4504
    13.4944  13.5094  13.5943  13.5974  13.6601  13.7683  13.7729  13.8116
    13.8260  13.8308  13.8681  13.8751  13.8931  13.9720  13.9885  14.0445
    14.0593  14.1018  14.1526  14.1844  14.2291  14.2384  14.2550  14.2839
    14.2866  14.3171  14.3356  14.3836  14.4118  14.4902  14.5273  14.5536
    14.6067  14.6083  14.6273  14.6343  14.6595  14.6864  14.6977  14.7299
    14.7798  14.7894  14.8022  14.8220  14.8884  14.8997  14.9536  14.9548
    15.0429  15.0910  15.1582  15.1821  15.2214  15.2800  15.2956  15.2962
    15.3067  15.3150  15.3701  15.4162  15.5475  15.5543  15.6537  15.8010
    15.8398  15.9211  15.9670  15.9777  16.0749  16.0777  16.0984  16.1137
    16.1978  16.2075  16.2124  16.2500  16.2909  16.4280  16.4931  16.5089
    16.5145  16.5214  16.5712  16.5993  16.6059  16.6062  16.6081  16.6382
    16.6469  16.6610  16.6636  16.6768  16.7053  16.8000  16.8103  16.8318
    16.8756  16.8973  16.9243  16.9688  17.0066  17.0104  17.0363  17.0818
    17.2399  17.2413  17.2453  17.2636  17.2680  17.2783  17.3973  17.4720
    17.5099  17.5163  17.5625  17.5684  17.5799  17.6026  17.6532  17.6576
    17.6879  17.7231  17.7329  17.8362  17.8862  17.9379  17.9503  17.9612
    18.0161  18.0525  18.0534  18.0580  18.0936  18.1182  18.2239  18.2491
    18.2589  18.2875  18.2906  18.3049  18.3214  18.3618  18.3723  18.4205
    18.4275  18.4293  18.4320  18.4331  18.4611  18.4645  18.4733  18.4962
    18.5010  18.5180  18.5382  18.5395  18.5688  18.5689  18.5931  18.6153
    18.6273  18.6746  18.7383  18.7401  18.7446  18.7842  18.8090  18.8416
    18.8880  18.8930  18.9156  18.9255  18.9348  18.9425  18.9552  18.9813
    19.0397  19.0397  19.0590  19.1071  19.1223  19.1457  19.1570  19.1719
    19.1806  19.3190  19.3200  19.4219  19.4553  19.4616  19.4783  19.5305
    19.5798  19.6040  19.6605  19.6702  19.6770  19.6822  19.6978  19.6985
    19.7290  19.7481  19.7809  19.8736  19.8813  19.9367  19.9856  19.9902
    19.9905  19.9976  20.0662  20.0759  20.1049  20.1311  20.1542  20.1931
    20.2042  20.2226  20.2257  20.2402  20.2413  20.2872  20.3149  20.3653
    20.3797  20.3798  20.4515  20.5187  20.5503  20.6174  20.6231  20.6437
    20.6591  20.6831  20.7226  20.8191  20.9053  20.9203  21.0318  21.0353
    21.2949  21.2990  21.3864  21.4112  21.4265  21.4324  21.4586  21.4709
    21.5116  21.6425  21.6692  21.6945  21.6966  21.8977  21.9139  21.9421
    21.9874  22.0226  22.0616  22.0731  22.0853  22.0856  22.0873  22.1146
    22.1195  22.1256  22.1615  22.1751  22.2126  22.2765  22.2781  22.3453
    22.3622  22.3795  22.3920  22.4788  22.4880  22.5220  22.6361  22.6599
    22.6654  22.6831  22.6894  22.6923  22.6972  22.7202  22.8141  22.9077
    22.9347  22.9396

     the Fermi energy is    -4.4232 ev

     Writing output data file benzene.save
 
     init_run     :      1.04s CPU      1.20s WALL (       1 calls)
     electrons    :    107.67s CPU    108.24s WALL (       1 calls)

     Called by init_run:
     wfcinit      :      0.00s CPU      0.00s WALL (       1 calls)
     potinit      :      0.16s CPU      0.18s WALL (       1 calls)

     Called by electrons:
     c_bands      :    107.63s CPU    108.19s WALL (       1 calls)
     v_of_rho     :      0.08s CPU      0.09s WALL (       1 calls)
     newd         :      0.09s CPU      0.09s WALL (       1 calls)

     Called by c_bands:
     init_us_2    :      0.00s CPU      0.00s WALL (       1 calls)
     cegterg      :    106.25s CPU    106.74s WALL (       2 calls)

     Called by *egterg:
     h_psi        :     12.85s CPU     12.92s WALL (      25 calls)
     s_psi        :      0.12s CPU      0.12s WALL (      25 calls)
     g_psi        :      0.06s CPU      0.06s WALL (      22 calls)
     cdiaghg      :     80.67s CPU     81.02s WALL (      23 calls)

     Called by h_psi:
     add_vuspsi   :      0.12s CPU      0.12s WALL (      25 calls)

     General routines
     calbec       :      0.15s CPU      0.15s WALL (      25 calls)
     fft          :      0.09s CPU      0.11s WALL (      12 calls)
     ffts         :      0.00s CPU      0.00s WALL (       1 calls)
     fftw         :     11.97s CPU     12.03s WALL (   17904 calls)
     interpolate  :      0.02s CPU      0.02s WALL (       1 calls)
     davcio       :      0.00s CPU      0.02s WALL (       3 calls)
 
     Parallel routines
     fft_scatter  :      4.47s CPU      4.51s WALL (   17917 calls)
 
     PWSCF        :  1m50.75s CPU     1m52.01s WALL

 
   This run was terminated on:  18:34: 6   4Sep2018            

=------------------------------------------------------------------------------=
   JOB DONE.
=------------------------------------------------------------------------------=
