
     Program PWSCF v.4.3        starts on  6Sep2018 at 14:27:26 

     This program is part of the open-source Quantum ESPRESSO suite
     for quantum simulation of materials; please cite
         "P. Giannozzi et al., J. Phys.:Condens. Matter 21 395502 (2009);
          URL http://www.quantum-espresso.org", 
     in publications or presentations arising from this work. More details at
     http://www.quantum-espresso.org/wiki/index.php/Citing_Quantum-ESPRESSO

     Parallel version (MPI), running on    64 processors
     R & G space division:  proc/pool =   64

     Current dimensions of program PWSCF are:
     Max number of different atomic species (ntypx) = **
     Max number of k-points (npk) =  40000
     Max angular momentum in pseudopotentials (lmaxx) =  3
     Waiting for input...

     Subspace diagonalization in iterative solution of the eigenvalue problem:
     parallel, distributed-memory algorithm (size of sub-group:  5*  5 procs)

 
   Stick Mesh
   ----------
   nst = 10457,  nstw =  1155, nsts =  4177
               n.st   n.stw   n.sts    n.g    n.gw   n.gs
   min         163      18      65    9923     362    2501
   max         164      19      66    9926     366    2528
      10457    1155    4177  635163   23329  160693
 


     bravais-lattice index     =           14
     lattice parameter (a_0)   =      21.7375  a.u.
     unit-cell volume          =    7238.1051 (a.u.)^3
     number of atoms/cell      =           84
     number of atomic types    =            3
     number of electrons       =       672.00
     number of Kohn-Sham states=          403
     kinetic-energy cutoff     =      30.0000  Ry
     charge density cutoff     =     300.0000  Ry
     convergence threshold     =      1.0E-08
     mixing beta               =       0.3000
     number of iterations used =            8  local-TF  mixing
     Exchange-correlation      = SLA  PW   PBE  PBE (1434)
     EXX-fraction              =        0.00

     celldm(1)=  21.737520  celldm(2)=   0.927671  celldm(3)=   0.759628
     celldm(4)=   0.000000  celldm(5)=   0.000000  celldm(6)=   0.000000

     crystal axes: (cart. coord. in units of a_0)
               a(1) = (   1.000000   0.000000   0.000000 )  
               a(2) = (   0.000000   0.927671   0.000000 )  
               a(3) = (   0.000000   0.000000   0.759628 )  

     reciprocal axes: (cart. coord. in units 2 pi/a_0)
               b(1) = (  1.000000  0.000000  0.000000 )  
               b(2) = (  0.000000  1.077968  0.000000 )  
               b(3) = (  0.000000  0.000000  1.316434 )  


     PseudoPot. # 1 for O  read from file O.pbe-van_bm.UPF
     MD5 check sum: ca2828d9fb1f294809e918903b7648d1
     Pseudo is Ultrasoft, Zval =  6.0
     Generated by new atomic code, or converted to UPF format
     Using radial grid of  737 points,  4 beta functions with: 
                l(1) =   0
                l(2) =   0
                l(3) =   1
                l(4) =   1
     Q(r) pseudized with  8 coefficients,  rinner =    0.800   0.800   0.800


     PseudoPot. # 2 for V  read from file V.pbe-van-yufengl.UPF
     MD5 check sum: 105a573f738f0b837c178d5a4207921b
     Pseudo is Ultrasoft + core correction, Zval = 13.0
     Generated by new atomic code, or converted to UPF format
     Using radial grid of  853 points,  6 beta functions with: 
                l(1) =   0
                l(2) =   0
                l(3) =   1
                l(4) =   1
                l(5) =   2
                l(6) =   2
     Q(r) pseudized with  6 coefficients,  rinner =    1.000   1.000   1.000
                                                       1.000   1.000

     PseudoPot. # 3 for ox read from file O.pbe-van-dgp-1s1.UPF
     MD5 check sum: 2083901d62884ac3a15d661bda1575b3
     Pseudo is Ultrasoft, Zval =  7.0
     Generated by new atomic code, or converted to UPF format
     Using radial grid of  737 points,  4 beta functions with: 
                l(1) =   0
                l(2) =   0
                l(3) =   1
                l(4) =   1
     Q(r) pseudized with  8 coefficients,  rinner =    0.800   0.800   0.800


     atomic species   valence    mass     pseudopotential
        O              6.00    15.99900     O ( 1.00)
        V             13.00    50.94000     V ( 1.00)
        OX             7.00    15.99900     ox( 1.00)

     Starting magnetic structure 
     atomic species   magnetization
        O            0.000
        V            0.010
        OX           0.000

     LDA+U calculation, Hubbard_lmax = 2
     atomic species  L   Hubbard U  Hubbard alpha
        V            2    0.227846    0.000000

      2 Sym.Ops. (no inversion)


   Cartesian axes

     site n.     atom                  positions (a_0 units)
         1           V   tau(  1) = (   0.1483269   0.0000000   0.3388149  )
         2           V   tau(  2) = (   0.1483269   0.0000000   0.7186289  )
         3           V   tau(  3) = (   0.1483269   0.3092237   0.3388149  )
         4           V   tau(  4) = (   0.1483269   0.3092237   0.7186289  )
         5           V   tau(  5) = (   0.1483269   0.6184474   0.3388149  )
         6           V   tau(  6) = (   0.1483269   0.6184474   0.7186289  )
         7           V   tau(  7) = (   0.3516731   0.1546118   0.0409986  )
         8           V   tau(  8) = (   0.3516731   0.1546118   0.4208125  )
         9           V   tau(  9) = (   0.3516731   0.4638355   0.0409986  )
        10           V   tau( 10) = (   0.3516731   0.4638355   0.4208125  )
        11           V   tau( 11) = (   0.3516731   0.7730592   0.0409986  )
        12           V   tau( 12) = (   0.3516731   0.7730592   0.4208125  )
        13           V   tau( 13) = (   0.6483270   0.1546118   0.0409980  )
        14           V   tau( 14) = (   0.6483270   0.1546118   0.4208119  )
        15           V   tau( 15) = (   0.6483270   0.4638355   0.0409980  )
        16           V   tau( 16) = (   0.6483270   0.4638355   0.4208119  )
        17           V   tau( 17) = (   0.6483270   0.7730592   0.0409980  )
        18           V   tau( 18) = (   0.6483270   0.7730592   0.4208119  )
        19           V   tau( 19) = (   0.8516731   0.0000000   0.3388154  )
        20           V   tau( 20) = (   0.8516731   0.0000000   0.7186293  )
        21           V   tau( 21) = (   0.8516731   0.3092237   0.3388154  )
        22           V   tau( 22) = (   0.8516731   0.3092237   0.7186293  )
        23           V   tau( 23) = (   0.8516731   0.6184474   0.3388154  )
        24           V   tau( 24) = (   0.8516731   0.6184474   0.7186293  )
        25           O   tau( 25) = (   0.1813361   0.1546118   0.3796345  )
        26           O   tau( 26) = (   0.1813361   0.1546118   0.7594484  )
        27           O   tau( 27) = (   0.1813361   0.4638355   0.3796345  )
        28           O   tau( 28) = (   0.1813361   0.4638355   0.7594484  )
        29           O   tau( 29) = (   0.1813361   0.7730592   0.3796345  )
        30           O   tau( 30) = (   0.1813361   0.7730592   0.7594484  )
        31           O   tau( 31) = (   0.3186639   0.0000000   0.0001795  )
        32           O   tau( 32) = (   0.3186639   0.0000000   0.3799935  )
        33           O   tau( 33) = (   0.3186639   0.3092237   0.0001795  )
        34           O   tau( 34) = (   0.3186639   0.3092237   0.3799935  )
        35           O   tau( 35) = (   0.3186639   0.6184474   0.0001795  )
        36           O   tau( 36) = (   0.3186639   0.6184474   0.3799935  )
        37           O   tau( 37) = (   0.6813362   0.0000000   0.0001795  )
        38           O   tau( 38) = (   0.6813362   0.0000000   0.3799935  )
        39           O   tau( 39) = (   0.6813362   0.3092237   0.0001795  )
        40           O   tau( 40) = (   0.6813362   0.3092237   0.3799935  )
        41           O   tau( 41) = (   0.6813362   0.6184474   0.0001795  )
        42           O   tau( 42) = (   0.6813362   0.6184474   0.3799935  )
        43           O   tau( 43) = (   0.8186639   0.1546118   0.3796345  )
        44           O   tau( 44) = (   0.8186639   0.1546118   0.7594485  )
        45           O   tau( 45) = (   0.8186639   0.4638355   0.3796345  )
        46           O   tau( 46) = (   0.8186639   0.4638355   0.7594485  )
        47           O   tau( 47) = (   0.8186639   0.7730592   0.3796345  )
        48           O   tau( 48) = (   0.8186639   0.7730592   0.7594485  )
        49           OX  tau( 49) = (   0.8552736   0.0000000   0.2004983  )
        50           O   tau( 50) = (   0.8552736   0.0000000   0.5803123  )
        51           O   tau( 51) = (   0.8552736   0.3092237   0.2004983  )
        52           O   tau( 52) = (   0.8552736   0.3092237   0.5803123  )
        53           O   tau( 53) = (   0.8552736   0.6184474   0.2004983  )
        54           O   tau( 54) = (   0.8552736   0.6184474   0.5803123  )
        55           O   tau( 55) = (   0.6447264   0.1546118   0.1793162  )
        56           O   tau( 56) = (   0.6447264   0.1546118   0.5591301  )
        57           O   tau( 57) = (   0.6447264   0.4638355   0.1793162  )
        58           O   tau( 58) = (   0.6447264   0.4638355   0.5591301  )
        59           O   tau( 59) = (   0.6447264   0.7730592   0.1793162  )
        60           O   tau( 60) = (   0.6447264   0.7730592   0.5591301  )
        61           O   tau( 61) = (   0.3552736   0.1546118   0.1793157  )
        62           O   tau( 62) = (   0.3552736   0.1546118   0.5591297  )
        63           O   tau( 63) = (   0.3552736   0.4638355   0.1793157  )
        64           O   tau( 64) = (   0.3552736   0.4638355   0.5591297  )
        65           O   tau( 65) = (   0.3552736   0.7730592   0.1793157  )
        66           O   tau( 66) = (   0.3552736   0.7730592   0.5591297  )
        67           O   tau( 67) = (   0.5000000   0.1546118   0.3788864  )
        68           O   tau( 68) = (   0.5000000   0.1546118   0.7587004  )
        69           O   tau( 69) = (   0.5000000   0.4638355   0.3788864  )
        70           O   tau( 70) = (   0.5000000   0.4638355   0.7587004  )
        71           O   tau( 71) = (   0.5000000   0.7730592   0.3788864  )
        72           O   tau( 72) = (   0.5000000   0.7730592   0.7587004  )
        73           O   tau( 73) = (  -0.0000000   0.0000000   0.0009276  )
        74           O   tau( 74) = (  -0.0000000   0.0000000   0.3807415  )
        75           O   tau( 75) = (  -0.0000000   0.3092237   0.0009276  )
        76           O   tau( 76) = (  -0.0000000   0.3092237   0.3807415  )
        77           O   tau( 77) = (  -0.0000000   0.6184474   0.0009276  )
        78           O   tau( 78) = (  -0.0000000   0.6184474   0.3807415  )
        79           O   tau( 79) = (   0.1447264   0.0000000   0.2004987  )
        80           O   tau( 80) = (   0.1447264   0.0000000   0.5803126  )
        81           O   tau( 81) = (   0.1447264   0.3092237   0.2004987  )
        82           O   tau( 82) = (   0.1447264   0.3092237   0.5803126  )
        83           O   tau( 83) = (   0.1447264   0.6184474   0.2004987  )
        84           O   tau( 84) = (   0.1447264   0.6184474   0.5803126  )

     number of k points=    16  Fermi-Dirac smearing, width (Ry)=  0.0019
                       cart. coord. in units 2pi/a_0
        k(    1) = (   0.0000000   0.0000000   0.0000000), wk =   0.1250000
        k(    2) = (   0.0000000   0.0000000  -0.6582170), wk =   0.1250000
        k(    3) = (   0.0000000  -0.5389842   0.0000000), wk =   0.1250000
        k(    4) = (   0.0000000  -0.5389842  -0.6582170), wk =   0.1250000
        k(    5) = (  -0.5000000   0.0000000   0.0000000), wk =   0.1250000
        k(    6) = (  -0.5000000   0.0000000  -0.6582170), wk =   0.1250000
        k(    7) = (  -0.5000000  -0.5389842   0.0000000), wk =   0.1250000
        k(    8) = (  -0.5000000  -0.5389842  -0.6582170), wk =   0.1250000
        k(    9) = (   0.0000000   0.0000000   0.0000000), wk =   0.1250000
        k(   10) = (   0.0000000   0.0000000  -0.6582170), wk =   0.1250000
        k(   11) = (   0.0000000  -0.5389842   0.0000000), wk =   0.1250000
        k(   12) = (   0.0000000  -0.5389842  -0.6582170), wk =   0.1250000
        k(   13) = (  -0.5000000   0.0000000   0.0000000), wk =   0.1250000
        k(   14) = (  -0.5000000   0.0000000  -0.6582170), wk =   0.1250000
        k(   15) = (  -0.5000000  -0.5389842   0.0000000), wk =   0.1250000
        k(   16) = (  -0.5000000  -0.5389842  -0.6582170), wk =   0.1250000

     G cutoff = 3590.7196  ( 635163 G-vectors)     FFT grid: (120,120, 96)
     G cutoff = 1436.2879  ( 160693 G-vectors)  smooth grid: ( 75, 72, 60)

     Largest allocated arrays     est. size (Mb)     dimensions
        Kohn-Sham Wavefunctions         1.97 Mb     (    321, 403)
        Atomic wavefunctions            2.35 Mb     (    321, 480)
        NL pseudopotentials             4.47 Mb     (    321, 912)
        Each V/rho on FFT grid          0.88 Mb     (  28800,   2)
        Each G-vector array             0.08 Mb     (   9926)
        G-vector shells                 0.04 Mb     (   4974)
     Largest temporary arrays     est. size (Mb)     dimensions
        Auxiliary wavefunctions         7.90 Mb     (    321,1612)
        Each subspace H/S matrix       39.65 Mb     (   1612,1612)
        Each <psi_i|beta_j> matrix      5.61 Mb     (    912, 403)
        Arrays for rho mixing           3.52 Mb     (  28800,   8)

     Check: negative/imaginary core charge=   -0.000004    0.000000

     Initial potential from superposition of free atoms
     Check: negative starting charge=(component1):   -0.005916
     Check: negative starting charge=(component2):   -0.005794

     starting charge  671.97045, renormalised to  672.00000

     negative rho (up, down):  0.592E-02 0.579E-02

     Parameters of the lda+U calculation:
     Number of iteration with fixed ns =  0
     Starting ns and Hubbard U :
 enter write_ns
U( 1) =  0.0000      U( 2) =  3.1000      U( 3) =  0.0000
alpha( 1) =  0.0000      alpha( 2) =  0.0000      alpha( 3) =  0.0000
atom    1   Tr[ns(na)]=   3.0000000
atom    1   spin  1
eigenvalues:  0.6000000 0.6000000 0.6000000 0.6000000 0.6000000
 eigenvectors
 1   1.0000000  0.0000000  0.0000000  0.0000000  0.0000000
 2   0.0000000  1.0000000  0.0000000  0.0000000  0.0000000
 3   0.0000000  0.0000000  1.0000000  0.0000000  0.0000000
 4   0.0000000  0.0000000  0.0000000  1.0000000  0.0000000
 5   0.0000000  0.0000000  0.0000000  0.0000000  1.0000000
 occupations
 0.600  0.000  0.000  0.000  0.000
 0.000  0.600  0.000  0.000  0.000
 0.000  0.000  0.600  0.000  0.000
 0.000  0.000  0.000  0.600  0.000
 0.000  0.000  0.000  0.000  0.600
atom    1   spin  2
eigenvalues:  0.0000000 0.0000000 0.0000000 0.0000000 0.0000000
 eigenvectors
 1   1.0000000  0.0000000  0.0000000  0.0000000  0.0000000
 2   0.0000000  1.0000000  0.0000000  0.0000000  0.0000000
 3   0.0000000  0.0000000  1.0000000  0.0000000  0.0000000
 4   0.0000000  0.0000000  0.0000000  1.0000000  0.0000000
 5   0.0000000  0.0000000  0.0000000  0.0000000  1.0000000
 occupations
 0.000  0.000  0.000  0.000  0.000
 0.000  0.000  0.000  0.000  0.000
 0.000  0.000  0.000  0.000  0.000
 0.000  0.000  0.000  0.000  0.000
 0.000  0.000  0.000  0.000  0.000
atom    2   Tr[ns(na)]=   3.0000000
atom    2   spin  1
eigenvalues:  0.6000000 0.6000000 0.6000000 0.6000000 0.6000000
 eigenvectors
 1   1.0000000  0.0000000  0.0000000  0.0000000  0.0000000
 2   0.0000000  1.0000000  0.0000000  0.0000000  0.0000000
 3   0.0000000  0.0000000  1.0000000  0.0000000  0.0000000
 4   0.0000000  0.0000000  0.0000000  1.0000000  0.0000000
 5   0.0000000  0.0000000  0.0000000  0.0000000  1.0000000
 occupations
 0.600  0.000  0.000  0.000  0.000
 0.000  0.600  0.000  0.000  0.000
 0.000  0.000  0.600  0.000  0.000
 0.000  0.000  0.000  0.600  0.000
 0.000  0.000  0.000  0.000  0.600
atom    2   spin  2
eigenvalues:  0.0000000 0.0000000 0.0000000 0.0000000 0.0000000
 eigenvectors
 1   1.0000000  0.0000000  0.0000000  0.0000000  0.0000000
 2   0.0000000  1.0000000  0.0000000  0.0000000  0.0000000
 3   0.0000000  0.0000000  1.0000000  0.0000000  0.0000000
 4   0.0000000  0.0000000  0.0000000  1.0000000  0.0000000
 5   0.0000000  0.0000000  0.0000000  0.0000000  1.0000000
 occupations
 0.000  0.000  0.000  0.000  0.000
 0.000  0.000  0.000  0.000  0.000
 0.000  0.000  0.000  0.000  0.000
 0.000  0.000  0.000  0.000  0.000
 0.000  0.000  0.000  0.000  0.000
atom    3   Tr[ns(na)]=   3.0000000
atom    3   spin  1
eigenvalues:  0.6000000 0.6000000 0.6000000 0.6000000 0.6000000
 eigenvectors
 1   1.0000000  0.0000000  0.0000000  0.0000000  0.0000000
 2   0.0000000  1.0000000  0.0000000  0.0000000  0.0000000
 3   0.0000000  0.0000000  1.0000000  0.0000000  0.0000000
 4   0.0000000  0.0000000  0.0000000  1.0000000  0.0000000
 5   0.0000000  0.0000000  0.0000000  0.0000000  1.0000000
 occupations
 0.600  0.000  0.000  0.000  0.000
 0.000  0.600  0.000  0.000  0.000
 0.000  0.000  0.600  0.000  0.000
 0.000  0.000  0.000  0.600  0.000
 0.000  0.000  0.000  0.000  0.600
atom    3   spin  2
eigenvalues:  0.0000000 0.0000000 0.0000000 0.0000000 0.0000000
 eigenvectors
 1   1.0000000  0.0000000  0.0000000  0.0000000  0.0000000
 2   0.0000000  1.0000000  0.0000000  0.0000000  0.0000000
 3   0.0000000  0.0000000  1.0000000  0.0000000  0.0000000
 4   0.0000000  0.0000000  0.0000000  1.0000000  0.0000000
 5   0.0000000  0.0000000  0.0000000  0.0000000  1.0000000
 occupations
 0.000  0.000  0.000  0.000  0.000
 0.000  0.000  0.000  0.000  0.000
 0.000  0.000  0.000  0.000  0.000
 0.000  0.000  0.000  0.000  0.000
 0.000  0.000  0.000  0.000  0.000
atom    4   Tr[ns(na)]=   3.0000000
atom    4   spin  1
eigenvalues:  0.6000000 0.6000000 0.6000000 0.6000000 0.6000000
 eigenvectors
 1   1.0000000  0.0000000  0.0000000  0.0000000  0.0000000
 2   0.0000000  1.0000000  0.0000000  0.0000000  0.0000000
 3   0.0000000  0.0000000  1.0000000  0.0000000  0.0000000
 4   0.0000000  0.0000000  0.0000000  1.0000000  0.0000000
 5   0.0000000  0.0000000  0.0000000  0.0000000  1.0000000
 occupations
 0.600  0.000  0.000  0.000  0.000
 0.000  0.600  0.000  0.000  0.000
 0.000  0.000  0.600  0.000  0.000
 0.000  0.000  0.000  0.600  0.000
 0.000  0.000  0.000  0.000  0.600
atom    4   spin  2
eigenvalues:  0.0000000 0.0000000 0.0000000 0.0000000 0.0000000
 eigenvectors
 1   1.0000000  0.0000000  0.0000000  0.0000000  0.0000000
 2   0.0000000  1.0000000  0.0000000  0.0000000  0.0000000
 3   0.0000000  0.0000000  1.0000000  0.0000000  0.0000000
 4   0.0000000  0.0000000  0.0000000  1.0000000  0.0000000
 5   0.0000000  0.0000000  0.0000000  0.0000000  1.0000000
 occupations
 0.000  0.000  0.000  0.000  0.000
 0.000  0.000  0.000  0.000  0.000
 0.000  0.000  0.000  0.000  0.000
 0.000  0.000  0.000  0.000  0.000
 0.000  0.000  0.000  0.000  0.000
atom    5   Tr[ns(na)]=   3.0000000
atom    5   spin  1
eigenvalues:  0.6000000 0.6000000 0.6000000 0.6000000 0.6000000
 eigenvectors
 1   1.0000000  0.0000000  0.0000000  0.0000000  0.0000000
 2   0.0000000  1.0000000  0.0000000  0.0000000  0.0000000
 3   0.0000000  0.0000000  1.0000000  0.0000000  0.0000000
 4   0.0000000  0.0000000  0.0000000  1.0000000  0.0000000
 5   0.0000000  0.0000000  0.0000000  0.0000000  1.0000000
 occupations
 0.600  0.000  0.000  0.000  0.000
 0.000  0.600  0.000  0.000  0.000
 0.000  0.000  0.600  0.000  0.000
 0.000  0.000  0.000  0.600  0.000
 0.000  0.000  0.000  0.000  0.600
atom    5   spin  2
eigenvalues:  0.0000000 0.0000000 0.0000000 0.0000000 0.0000000
 eigenvectors
 1   1.0000000  0.0000000  0.0000000  0.0000000  0.0000000
 2   0.0000000  1.0000000  0.0000000  0.0000000  0.0000000
 3   0.0000000  0.0000000  1.0000000  0.0000000  0.0000000
 4   0.0000000  0.0000000  0.0000000  1.0000000  0.0000000
 5   0.0000000  0.0000000  0.0000000  0.0000000  1.0000000
 occupations
 0.000  0.000  0.000  0.000  0.000
 0.000  0.000  0.000  0.000  0.000
 0.000  0.000  0.000  0.000  0.000
 0.000  0.000  0.000  0.000  0.000
 0.000  0.000  0.000  0.000  0.000
atom    6   Tr[ns(na)]=   3.0000000
atom    6   spin  1
eigenvalues:  0.6000000 0.6000000 0.6000000 0.6000000 0.6000000
 eigenvectors
 1   1.0000000  0.0000000  0.0000000  0.0000000  0.0000000
 2   0.0000000  1.0000000  0.0000000  0.0000000  0.0000000
 3   0.0000000  0.0000000  1.0000000  0.0000000  0.0000000
 4   0.0000000  0.0000000  0.0000000  1.0000000  0.0000000
 5   0.0000000  0.0000000  0.0000000  0.0000000  1.0000000
 occupations
 0.600  0.000  0.000  0.000  0.000
 0.000  0.600  0.000  0.000  0.000
 0.000  0.000  0.600  0.000  0.000
 0.000  0.000  0.000  0.600  0.000
 0.000  0.000  0.000  0.000  0.600
atom    6   spin  2
eigenvalues:  0.0000000 0.0000000 0.0000000 0.0000000 0.0000000
 eigenvectors
 1   1.0000000  0.0000000  0.0000000  0.0000000  0.0000000
 2   0.0000000  1.0000000  0.0000000  0.0000000  0.0000000
 3   0.0000000  0.0000000  1.0000000  0.0000000  0.0000000
 4   0.0000000  0.0000000  0.0000000  1.0000000  0.0000000
 5   0.0000000  0.0000000  0.0000000  0.0000000  1.0000000
 occupations
 0.000  0.000  0.000  0.000  0.000
 0.000  0.000  0.000  0.000  0.000
 0.000  0.000  0.000  0.000  0.000
 0.000  0.000  0.000  0.000  0.000
 0.000  0.000  0.000  0.000  0.000
atom    7   Tr[ns(na)]=   3.0000000
atom    7   spin  1
eigenvalues:  0.6000000 0.6000000 0.6000000 0.6000000 0.6000000
 eigenvectors
 1   1.0000000  0.0000000  0.0000000  0.0000000  0.0000000
 2   0.0000000  1.0000000  0.0000000  0.0000000  0.0000000
 3   0.0000000  0.0000000  1.0000000  0.0000000  0.0000000
 4   0.0000000  0.0000000  0.0000000  1.0000000  0.0000000
 5   0.0000000  0.0000000  0.0000000  0.0000000  1.0000000
 occupations
 0.600  0.000  0.000  0.000  0.000
 0.000  0.600  0.000  0.000  0.000
 0.000  0.000  0.600  0.000  0.000
 0.000  0.000  0.000  0.600  0.000
 0.000  0.000  0.000  0.000  0.600
atom    7   spin  2
eigenvalues:  0.0000000 0.0000000 0.0000000 0.0000000 0.0000000
 eigenvectors
 1   1.0000000  0.0000000  0.0000000  0.0000000  0.0000000
 2   0.0000000  1.0000000  0.0000000  0.0000000  0.0000000
 3   0.0000000  0.0000000  1.0000000  0.0000000  0.0000000
 4   0.0000000  0.0000000  0.0000000  1.0000000  0.0000000
 5   0.0000000  0.0000000  0.0000000  0.0000000  1.0000000
 occupations
 0.000  0.000  0.000  0.000  0.000
 0.000  0.000  0.000  0.000  0.000
 0.000  0.000  0.000  0.000  0.000
 0.000  0.000  0.000  0.000  0.000
 0.000  0.000  0.000  0.000  0.000
atom    8   Tr[ns(na)]=   3.0000000
atom    8   spin  1
eigenvalues:  0.6000000 0.6000000 0.6000000 0.6000000 0.6000000
 eigenvectors
 1   1.0000000  0.0000000  0.0000000  0.0000000  0.0000000
 2   0.0000000  1.0000000  0.0000000  0.0000000  0.0000000
 3   0.0000000  0.0000000  1.0000000  0.0000000  0.0000000
 4   0.0000000  0.0000000  0.0000000  1.0000000  0.0000000
 5   0.0000000  0.0000000  0.0000000  0.0000000  1.0000000
 occupations
 0.600  0.000  0.000  0.000  0.000
 0.000  0.600  0.000  0.000  0.000
 0.000  0.000  0.600  0.000  0.000
 0.000  0.000  0.000  0.600  0.000
 0.000  0.000  0.000  0.000  0.600
atom    8   spin  2
eigenvalues:  0.0000000 0.0000000 0.0000000 0.0000000 0.0000000
 eigenvectors
 1   1.0000000  0.0000000  0.0000000  0.0000000  0.0000000
 2   0.0000000  1.0000000  0.0000000  0.0000000  0.0000000
 3   0.0000000  0.0000000  1.0000000  0.0000000  0.0000000
 4   0.0000000  0.0000000  0.0000000  1.0000000  0.0000000
 5   0.0000000  0.0000000  0.0000000  0.0000000  1.0000000
 occupations
 0.000  0.000  0.000  0.000  0.000
 0.000  0.000  0.000  0.000  0.000
 0.000  0.000  0.000  0.000  0.000
 0.000  0.000  0.000  0.000  0.000
 0.000  0.000  0.000  0.000  0.000
atom    9   Tr[ns(na)]=   3.0000000
atom    9   spin  1
eigenvalues:  0.6000000 0.6000000 0.6000000 0.6000000 0.6000000
 eigenvectors
 1   1.0000000  0.0000000  0.0000000  0.0000000  0.0000000
 2   0.0000000  1.0000000  0.0000000  0.0000000  0.0000000
 3   0.0000000  0.0000000  1.0000000  0.0000000  0.0000000
 4   0.0000000  0.0000000  0.0000000  1.0000000  0.0000000
 5   0.0000000  0.0000000  0.0000000  0.0000000  1.0000000
 occupations
 0.600  0.000  0.000  0.000  0.000
 0.000  0.600  0.000  0.000  0.000
 0.000  0.000  0.600  0.000  0.000
 0.000  0.000  0.000  0.600  0.000
 0.000  0.000  0.000  0.000  0.600
atom    9   spin  2
eigenvalues:  0.0000000 0.0000000 0.0000000 0.0000000 0.0000000
 eigenvectors
 1   1.0000000  0.0000000  0.0000000  0.0000000  0.0000000
 2   0.0000000  1.0000000  0.0000000  0.0000000  0.0000000
 3   0.0000000  0.0000000  1.0000000  0.0000000  0.0000000
 4   0.0000000  0.0000000  0.0000000  1.0000000  0.0000000
 5   0.0000000  0.0000000  0.0000000  0.0000000  1.0000000
 occupations
 0.000  0.000  0.000  0.000  0.000
 0.000  0.000  0.000  0.000  0.000
 0.000  0.000  0.000  0.000  0.000
 0.000  0.000  0.000  0.000  0.000
 0.000  0.000  0.000  0.000  0.000
atom   10   Tr[ns(na)]=   3.0000000
atom   10   spin  1
eigenvalues:  0.6000000 0.6000000 0.6000000 0.6000000 0.6000000
 eigenvectors
 1   1.0000000  0.0000000  0.0000000  0.0000000  0.0000000
 2   0.0000000  1.0000000  0.0000000  0.0000000  0.0000000
 3   0.0000000  0.0000000  1.0000000  0.0000000  0.0000000
 4   0.0000000  0.0000000  0.0000000  1.0000000  0.0000000
 5   0.0000000  0.0000000  0.0000000  0.0000000  1.0000000
 occupations
 0.600  0.000  0.000  0.000  0.000
 0.000  0.600  0.000  0.000  0.000
 0.000  0.000  0.600  0.000  0.000
 0.000  0.000  0.000  0.600  0.000
 0.000  0.000  0.000  0.000  0.600
atom   10   spin  2
eigenvalues:  0.0000000 0.0000000 0.0000000 0.0000000 0.0000000
 eigenvectors
 1   1.0000000  0.0000000  0.0000000  0.0000000  0.0000000
 2   0.0000000  1.0000000  0.0000000  0.0000000  0.0000000
 3   0.0000000  0.0000000  1.0000000  0.0000000  0.0000000
 4   0.0000000  0.0000000  0.0000000  1.0000000  0.0000000
 5   0.0000000  0.0000000  0.0000000  0.0000000  1.0000000
 occupations
 0.000  0.000  0.000  0.000  0.000
 0.000  0.000  0.000  0.000  0.000
 0.000  0.000  0.000  0.000  0.000
 0.000  0.000  0.000  0.000  0.000
 0.000  0.000  0.000  0.000  0.000
atom   11   Tr[ns(na)]=   3.0000000
atom   11   spin  1
eigenvalues:  0.6000000 0.6000000 0.6000000 0.6000000 0.6000000
 eigenvectors
 1   1.0000000  0.0000000  0.0000000  0.0000000  0.0000000
 2   0.0000000  1.0000000  0.0000000  0.0000000  0.0000000
 3   0.0000000  0.0000000  1.0000000  0.0000000  0.0000000
 4   0.0000000  0.0000000  0.0000000  1.0000000  0.0000000
 5   0.0000000  0.0000000  0.0000000  0.0000000  1.0000000
 occupations
 0.600  0.000  0.000  0.000  0.000
 0.000  0.600  0.000  0.000  0.000
 0.000  0.000  0.600  0.000  0.000
 0.000  0.000  0.000  0.600  0.000
 0.000  0.000  0.000  0.000  0.600
atom   11   spin  2
eigenvalues:  0.0000000 0.0000000 0.0000000 0.0000000 0.0000000
 eigenvectors
 1   1.0000000  0.0000000  0.0000000  0.0000000  0.0000000
 2   0.0000000  1.0000000  0.0000000  0.0000000  0.0000000
 3   0.0000000  0.0000000  1.0000000  0.0000000  0.0000000
 4   0.0000000  0.0000000  0.0000000  1.0000000  0.0000000
 5   0.0000000  0.0000000  0.0000000  0.0000000  1.0000000
 occupations
 0.000  0.000  0.000  0.000  0.000
 0.000  0.000  0.000  0.000  0.000
 0.000  0.000  0.000  0.000  0.000
 0.000  0.000  0.000  0.000  0.000
 0.000  0.000  0.000  0.000  0.000
atom   12   Tr[ns(na)]=   3.0000000
atom   12   spin  1
eigenvalues:  0.6000000 0.6000000 0.6000000 0.6000000 0.6000000
 eigenvectors
 1   1.0000000  0.0000000  0.0000000  0.0000000  0.0000000
 2   0.0000000  1.0000000  0.0000000  0.0000000  0.0000000
 3   0.0000000  0.0000000  1.0000000  0.0000000  0.0000000
 4   0.0000000  0.0000000  0.0000000  1.0000000  0.0000000
 5   0.0000000  0.0000000  0.0000000  0.0000000  1.0000000
 occupations
 0.600  0.000  0.000  0.000  0.000
 0.000  0.600  0.000  0.000  0.000
 0.000  0.000  0.600  0.000  0.000
 0.000  0.000  0.000  0.600  0.000
 0.000  0.000  0.000  0.000  0.600
atom   12   spin  2
eigenvalues:  0.0000000 0.0000000 0.0000000 0.0000000 0.0000000
 eigenvectors
 1   1.0000000  0.0000000  0.0000000  0.0000000  0.0000000
 2   0.0000000  1.0000000  0.0000000  0.0000000  0.0000000
 3   0.0000000  0.0000000  1.0000000  0.0000000  0.0000000
 4   0.0000000  0.0000000  0.0000000  1.0000000  0.0000000
 5   0.0000000  0.0000000  0.0000000  0.0000000  1.0000000
 occupations
 0.000  0.000  0.000  0.000  0.000
 0.000  0.000  0.000  0.000  0.000
 0.000  0.000  0.000  0.000  0.000
 0.000  0.000  0.000  0.000  0.000
 0.000  0.000  0.000  0.000  0.000
atom   13   Tr[ns(na)]=   3.0000000
atom   13   spin  1
eigenvalues:  0.6000000 0.6000000 0.6000000 0.6000000 0.6000000
 eigenvectors
 1   1.0000000  0.0000000  0.0000000  0.0000000  0.0000000
 2   0.0000000  1.0000000  0.0000000  0.0000000  0.0000000
 3   0.0000000  0.0000000  1.0000000  0.0000000  0.0000000
 4   0.0000000  0.0000000  0.0000000  1.0000000  0.0000000
 5   0.0000000  0.0000000  0.0000000  0.0000000  1.0000000
 occupations
 0.600  0.000  0.000  0.000  0.000
 0.000  0.600  0.000  0.000  0.000
 0.000  0.000  0.600  0.000  0.000
 0.000  0.000  0.000  0.600  0.000
 0.000  0.000  0.000  0.000  0.600
atom   13   spin  2
eigenvalues:  0.0000000 0.0000000 0.0000000 0.0000000 0.0000000
 eigenvectors
 1   1.0000000  0.0000000  0.0000000  0.0000000  0.0000000
 2   0.0000000  1.0000000  0.0000000  0.0000000  0.0000000
 3   0.0000000  0.0000000  1.0000000  0.0000000  0.0000000
 4   0.0000000  0.0000000  0.0000000  1.0000000  0.0000000
 5   0.0000000  0.0000000  0.0000000  0.0000000  1.0000000
 occupations
 0.000  0.000  0.000  0.000  0.000
 0.000  0.000  0.000  0.000  0.000
 0.000  0.000  0.000  0.000  0.000
 0.000  0.000  0.000  0.000  0.000
 0.000  0.000  0.000  0.000  0.000
atom   14   Tr[ns(na)]=   3.0000000
atom   14   spin  1
eigenvalues:  0.6000000 0.6000000 0.6000000 0.6000000 0.6000000
 eigenvectors
 1   1.0000000  0.0000000  0.0000000  0.0000000  0.0000000
 2   0.0000000  1.0000000  0.0000000  0.0000000  0.0000000
 3   0.0000000  0.0000000  1.0000000  0.0000000  0.0000000
 4   0.0000000  0.0000000  0.0000000  1.0000000  0.0000000
 5   0.0000000  0.0000000  0.0000000  0.0000000  1.0000000
 occupations
 0.600  0.000  0.000  0.000  0.000
 0.000  0.600  0.000  0.000  0.000
 0.000  0.000  0.600  0.000  0.000
 0.000  0.000  0.000  0.600  0.000
 0.000  0.000  0.000  0.000  0.600
atom   14   spin  2
eigenvalues:  0.0000000 0.0000000 0.0000000 0.0000000 0.0000000
 eigenvectors
 1   1.0000000  0.0000000  0.0000000  0.0000000  0.0000000
 2   0.0000000  1.0000000  0.0000000  0.0000000  0.0000000
 3   0.0000000  0.0000000  1.0000000  0.0000000  0.0000000
 4   0.0000000  0.0000000  0.0000000  1.0000000  0.0000000
 5   0.0000000  0.0000000  0.0000000  0.0000000  1.0000000
 occupations
 0.000  0.000  0.000  0.000  0.000
 0.000  0.000  0.000  0.000  0.000
 0.000  0.000  0.000  0.000  0.000
 0.000  0.000  0.000  0.000  0.000
 0.000  0.000  0.000  0.000  0.000
atom   15   Tr[ns(na)]=   3.0000000
atom   15   spin  1
eigenvalues:  0.6000000 0.6000000 0.6000000 0.6000000 0.6000000
 eigenvectors
 1   1.0000000  0.0000000  0.0000000  0.0000000  0.0000000
 2   0.0000000  1.0000000  0.0000000  0.0000000  0.0000000
 3   0.0000000  0.0000000  1.0000000  0.0000000  0.0000000
 4   0.0000000  0.0000000  0.0000000  1.0000000  0.0000000
 5   0.0000000  0.0000000  0.0000000  0.0000000  1.0000000
 occupations
 0.600  0.000  0.000  0.000  0.000
 0.000  0.600  0.000  0.000  0.000
 0.000  0.000  0.600  0.000  0.000
 0.000  0.000  0.000  0.600  0.000
 0.000  0.000  0.000  0.000  0.600
atom   15   spin  2
eigenvalues:  0.0000000 0.0000000 0.0000000 0.0000000 0.0000000
 eigenvectors
 1   1.0000000  0.0000000  0.0000000  0.0000000  0.0000000
 2   0.0000000  1.0000000  0.0000000  0.0000000  0.0000000
 3   0.0000000  0.0000000  1.0000000  0.0000000  0.0000000
 4   0.0000000  0.0000000  0.0000000  1.0000000  0.0000000
 5   0.0000000  0.0000000  0.0000000  0.0000000  1.0000000
 occupations
 0.000  0.000  0.000  0.000  0.000
 0.000  0.000  0.000  0.000  0.000
 0.000  0.000  0.000  0.000  0.000
 0.000  0.000  0.000  0.000  0.000
 0.000  0.000  0.000  0.000  0.000
atom   16   Tr[ns(na)]=   3.0000000
atom   16   spin  1
eigenvalues:  0.6000000 0.6000000 0.6000000 0.6000000 0.6000000
 eigenvectors
 1   1.0000000  0.0000000  0.0000000  0.0000000  0.0000000
 2   0.0000000  1.0000000  0.0000000  0.0000000  0.0000000
 3   0.0000000  0.0000000  1.0000000  0.0000000  0.0000000
 4   0.0000000  0.0000000  0.0000000  1.0000000  0.0000000
 5   0.0000000  0.0000000  0.0000000  0.0000000  1.0000000
 occupations
 0.600  0.000  0.000  0.000  0.000
 0.000  0.600  0.000  0.000  0.000
 0.000  0.000  0.600  0.000  0.000
 0.000  0.000  0.000  0.600  0.000
 0.000  0.000  0.000  0.000  0.600
atom   16   spin  2
eigenvalues:  0.0000000 0.0000000 0.0000000 0.0000000 0.0000000
 eigenvectors
 1   1.0000000  0.0000000  0.0000000  0.0000000  0.0000000
 2   0.0000000  1.0000000  0.0000000  0.0000000  0.0000000
 3   0.0000000  0.0000000  1.0000000  0.0000000  0.0000000
 4   0.0000000  0.0000000  0.0000000  1.0000000  0.0000000
 5   0.0000000  0.0000000  0.0000000  0.0000000  1.0000000
 occupations
 0.000  0.000  0.000  0.000  0.000
 0.000  0.000  0.000  0.000  0.000
 0.000  0.000  0.000  0.000  0.000
 0.000  0.000  0.000  0.000  0.000
 0.000  0.000  0.000  0.000  0.000
atom   17   Tr[ns(na)]=   3.0000000
atom   17   spin  1
eigenvalues:  0.6000000 0.6000000 0.6000000 0.6000000 0.6000000
 eigenvectors
 1   1.0000000  0.0000000  0.0000000  0.0000000  0.0000000
 2   0.0000000  1.0000000  0.0000000  0.0000000  0.0000000
 3   0.0000000  0.0000000  1.0000000  0.0000000  0.0000000
 4   0.0000000  0.0000000  0.0000000  1.0000000  0.0000000
 5   0.0000000  0.0000000  0.0000000  0.0000000  1.0000000
 occupations
 0.600  0.000  0.000  0.000  0.000
 0.000  0.600  0.000  0.000  0.000
 0.000  0.000  0.600  0.000  0.000
 0.000  0.000  0.000  0.600  0.000
 0.000  0.000  0.000  0.000  0.600
atom   17   spin  2
eigenvalues:  0.0000000 0.0000000 0.0000000 0.0000000 0.0000000
 eigenvectors
 1   1.0000000  0.0000000  0.0000000  0.0000000  0.0000000
 2   0.0000000  1.0000000  0.0000000  0.0000000  0.0000000
 3   0.0000000  0.0000000  1.0000000  0.0000000  0.0000000
 4   0.0000000  0.0000000  0.0000000  1.0000000  0.0000000
 5   0.0000000  0.0000000  0.0000000  0.0000000  1.0000000
 occupations
 0.000  0.000  0.000  0.000  0.000
 0.000  0.000  0.000  0.000  0.000
 0.000  0.000  0.000  0.000  0.000
 0.000  0.000  0.000  0.000  0.000
 0.000  0.000  0.000  0.000  0.000
atom   18   Tr[ns(na)]=   3.0000000
atom   18   spin  1
eigenvalues:  0.6000000 0.6000000 0.6000000 0.6000000 0.6000000
 eigenvectors
 1   1.0000000  0.0000000  0.0000000  0.0000000  0.0000000
 2   0.0000000  1.0000000  0.0000000  0.0000000  0.0000000
 3   0.0000000  0.0000000  1.0000000  0.0000000  0.0000000
 4   0.0000000  0.0000000  0.0000000  1.0000000  0.0000000
 5   0.0000000  0.0000000  0.0000000  0.0000000  1.0000000
 occupations
 0.600  0.000  0.000  0.000  0.000
 0.000  0.600  0.000  0.000  0.000
 0.000  0.000  0.600  0.000  0.000
 0.000  0.000  0.000  0.600  0.000
 0.000  0.000  0.000  0.000  0.600
atom   18   spin  2
eigenvalues:  0.0000000 0.0000000 0.0000000 0.0000000 0.0000000
 eigenvectors
 1   1.0000000  0.0000000  0.0000000  0.0000000  0.0000000
 2   0.0000000  1.0000000  0.0000000  0.0000000  0.0000000
 3   0.0000000  0.0000000  1.0000000  0.0000000  0.0000000
 4   0.0000000  0.0000000  0.0000000  1.0000000  0.0000000
 5   0.0000000  0.0000000  0.0000000  0.0000000  1.0000000
 occupations
 0.000  0.000  0.000  0.000  0.000
 0.000  0.000  0.000  0.000  0.000
 0.000  0.000  0.000  0.000  0.000
 0.000  0.000  0.000  0.000  0.000
 0.000  0.000  0.000  0.000  0.000
atom   19   Tr[ns(na)]=   3.0000000
atom   19   spin  1
eigenvalues:  0.6000000 0.6000000 0.6000000 0.6000000 0.6000000
 eigenvectors
 1   1.0000000  0.0000000  0.0000000  0.0000000  0.0000000
 2   0.0000000  1.0000000  0.0000000  0.0000000  0.0000000
 3   0.0000000  0.0000000  1.0000000  0.0000000  0.0000000
 4   0.0000000  0.0000000  0.0000000  1.0000000  0.0000000
 5   0.0000000  0.0000000  0.0000000  0.0000000  1.0000000
 occupations
 0.600  0.000  0.000  0.000  0.000
 0.000  0.600  0.000  0.000  0.000
 0.000  0.000  0.600  0.000  0.000
 0.000  0.000  0.000  0.600  0.000
 0.000  0.000  0.000  0.000  0.600
atom   19   spin  2
eigenvalues:  0.0000000 0.0000000 0.0000000 0.0000000 0.0000000
 eigenvectors
 1   1.0000000  0.0000000  0.0000000  0.0000000  0.0000000
 2   0.0000000  1.0000000  0.0000000  0.0000000  0.0000000
 3   0.0000000  0.0000000  1.0000000  0.0000000  0.0000000
 4   0.0000000  0.0000000  0.0000000  1.0000000  0.0000000
 5   0.0000000  0.0000000  0.0000000  0.0000000  1.0000000
 occupations
 0.000  0.000  0.000  0.000  0.000
 0.000  0.000  0.000  0.000  0.000
 0.000  0.000  0.000  0.000  0.000
 0.000  0.000  0.000  0.000  0.000
 0.000  0.000  0.000  0.000  0.000
atom   20   Tr[ns(na)]=   3.0000000
atom   20   spin  1
eigenvalues:  0.6000000 0.6000000 0.6000000 0.6000000 0.6000000
 eigenvectors
 1   1.0000000  0.0000000  0.0000000  0.0000000  0.0000000
 2   0.0000000  1.0000000  0.0000000  0.0000000  0.0000000
 3   0.0000000  0.0000000  1.0000000  0.0000000  0.0000000
 4   0.0000000  0.0000000  0.0000000  1.0000000  0.0000000
 5   0.0000000  0.0000000  0.0000000  0.0000000  1.0000000
 occupations
 0.600  0.000  0.000  0.000  0.000
 0.000  0.600  0.000  0.000  0.000
 0.000  0.000  0.600  0.000  0.000
 0.000  0.000  0.000  0.600  0.000
 0.000  0.000  0.000  0.000  0.600
atom   20   spin  2
eigenvalues:  0.0000000 0.0000000 0.0000000 0.0000000 0.0000000
 eigenvectors
 1   1.0000000  0.0000000  0.0000000  0.0000000  0.0000000
 2   0.0000000  1.0000000  0.0000000  0.0000000  0.0000000
 3   0.0000000  0.0000000  1.0000000  0.0000000  0.0000000
 4   0.0000000  0.0000000  0.0000000  1.0000000  0.0000000
 5   0.0000000  0.0000000  0.0000000  0.0000000  1.0000000
 occupations
 0.000  0.000  0.000  0.000  0.000
 0.000  0.000  0.000  0.000  0.000
 0.000  0.000  0.000  0.000  0.000
 0.000  0.000  0.000  0.000  0.000
 0.000  0.000  0.000  0.000  0.000
atom   21   Tr[ns(na)]=   3.0000000
atom   21   spin  1
eigenvalues:  0.6000000 0.6000000 0.6000000 0.6000000 0.6000000
 eigenvectors
 1   1.0000000  0.0000000  0.0000000  0.0000000  0.0000000
 2   0.0000000  1.0000000  0.0000000  0.0000000  0.0000000
 3   0.0000000  0.0000000  1.0000000  0.0000000  0.0000000
 4   0.0000000  0.0000000  0.0000000  1.0000000  0.0000000
 5   0.0000000  0.0000000  0.0000000  0.0000000  1.0000000
 occupations
 0.600  0.000  0.000  0.000  0.000
 0.000  0.600  0.000  0.000  0.000
 0.000  0.000  0.600  0.000  0.000
 0.000  0.000  0.000  0.600  0.000
 0.000  0.000  0.000  0.000  0.600
atom   21   spin  2
eigenvalues:  0.0000000 0.0000000 0.0000000 0.0000000 0.0000000
 eigenvectors
 1   1.0000000  0.0000000  0.0000000  0.0000000  0.0000000
 2   0.0000000  1.0000000  0.0000000  0.0000000  0.0000000
 3   0.0000000  0.0000000  1.0000000  0.0000000  0.0000000
 4   0.0000000  0.0000000  0.0000000  1.0000000  0.0000000
 5   0.0000000  0.0000000  0.0000000  0.0000000  1.0000000
 occupations
 0.000  0.000  0.000  0.000  0.000
 0.000  0.000  0.000  0.000  0.000
 0.000  0.000  0.000  0.000  0.000
 0.000  0.000  0.000  0.000  0.000
 0.000  0.000  0.000  0.000  0.000
atom   22   Tr[ns(na)]=   3.0000000
atom   22   spin  1
eigenvalues:  0.6000000 0.6000000 0.6000000 0.6000000 0.6000000
 eigenvectors
 1   1.0000000  0.0000000  0.0000000  0.0000000  0.0000000
 2   0.0000000  1.0000000  0.0000000  0.0000000  0.0000000
 3   0.0000000  0.0000000  1.0000000  0.0000000  0.0000000
 4   0.0000000  0.0000000  0.0000000  1.0000000  0.0000000
 5   0.0000000  0.0000000  0.0000000  0.0000000  1.0000000
 occupations
 0.600  0.000  0.000  0.000  0.000
 0.000  0.600  0.000  0.000  0.000
 0.000  0.000  0.600  0.000  0.000
 0.000  0.000  0.000  0.600  0.000
 0.000  0.000  0.000  0.000  0.600
atom   22   spin  2
eigenvalues:  0.0000000 0.0000000 0.0000000 0.0000000 0.0000000
 eigenvectors
 1   1.0000000  0.0000000  0.0000000  0.0000000  0.0000000
 2   0.0000000  1.0000000  0.0000000  0.0000000  0.0000000
 3   0.0000000  0.0000000  1.0000000  0.0000000  0.0000000
 4   0.0000000  0.0000000  0.0000000  1.0000000  0.0000000
 5   0.0000000  0.0000000  0.0000000  0.0000000  1.0000000
 occupations
 0.000  0.000  0.000  0.000  0.000
 0.000  0.000  0.000  0.000  0.000
 0.000  0.000  0.000  0.000  0.000
 0.000  0.000  0.000  0.000  0.000
 0.000  0.000  0.000  0.000  0.000
atom   23   Tr[ns(na)]=   3.0000000
atom   23   spin  1
eigenvalues:  0.6000000 0.6000000 0.6000000 0.6000000 0.6000000
 eigenvectors
 1   1.0000000  0.0000000  0.0000000  0.0000000  0.0000000
 2   0.0000000  1.0000000  0.0000000  0.0000000  0.0000000
 3   0.0000000  0.0000000  1.0000000  0.0000000  0.0000000
 4   0.0000000  0.0000000  0.0000000  1.0000000  0.0000000
 5   0.0000000  0.0000000  0.0000000  0.0000000  1.0000000
 occupations
 0.600  0.000  0.000  0.000  0.000
 0.000  0.600  0.000  0.000  0.000
 0.000  0.000  0.600  0.000  0.000
 0.000  0.000  0.000  0.600  0.000
 0.000  0.000  0.000  0.000  0.600
atom   23   spin  2
eigenvalues:  0.0000000 0.0000000 0.0000000 0.0000000 0.0000000
 eigenvectors
 1   1.0000000  0.0000000  0.0000000  0.0000000  0.0000000
 2   0.0000000  1.0000000  0.0000000  0.0000000  0.0000000
 3   0.0000000  0.0000000  1.0000000  0.0000000  0.0000000
 4   0.0000000  0.0000000  0.0000000  1.0000000  0.0000000
 5   0.0000000  0.0000000  0.0000000  0.0000000  1.0000000
 occupations
 0.000  0.000  0.000  0.000  0.000
 0.000  0.000  0.000  0.000  0.000
 0.000  0.000  0.000  0.000  0.000
 0.000  0.000  0.000  0.000  0.000
 0.000  0.000  0.000  0.000  0.000
atom   24   Tr[ns(na)]=   3.0000000
atom   24   spin  1
eigenvalues:  0.6000000 0.6000000 0.6000000 0.6000000 0.6000000
 eigenvectors
 1   1.0000000  0.0000000  0.0000000  0.0000000  0.0000000
 2   0.0000000  1.0000000  0.0000000  0.0000000  0.0000000
 3   0.0000000  0.0000000  1.0000000  0.0000000  0.0000000
 4   0.0000000  0.0000000  0.0000000  1.0000000  0.0000000
 5   0.0000000  0.0000000  0.0000000  0.0000000  1.0000000
 occupations
 0.600  0.000  0.000  0.000  0.000
 0.000  0.600  0.000  0.000  0.000
 0.000  0.000  0.600  0.000  0.000
 0.000  0.000  0.000  0.600  0.000
 0.000  0.000  0.000  0.000  0.600
atom   24   spin  2
eigenvalues:  0.0000000 0.0000000 0.0000000 0.0000000 0.0000000
 eigenvectors
 1   1.0000000  0.0000000  0.0000000  0.0000000  0.0000000
 2   0.0000000  1.0000000  0.0000000  0.0000000  0.0000000
 3   0.0000000  0.0000000  1.0000000  0.0000000  0.0000000
 4   0.0000000  0.0000000  0.0000000  1.0000000  0.0000000
 5   0.0000000  0.0000000  0.0000000  0.0000000  1.0000000
 occupations
 0.000  0.000  0.000  0.000  0.000
 0.000  0.000  0.000  0.000  0.000
 0.000  0.000  0.000  0.000  0.000
 0.000  0.000  0.000  0.000  0.000
 0.000  0.000  0.000  0.000  0.000
nsum =  72.0000000
 exit write_ns
 Atomic wfc used for LDA+U Projector are NOT orthogonalized
     Starting wfc are  480 atomic wfcs

     total cpu time spent up to now is     26.83 secs

     per-process dynamical memory:   111.0 Mb

     Self-consistent Calculation

     iteration #  1     ecut=    30.00 Ry     beta=0.30
     Davidson diagonalization with overlap
     ethr =  1.00E-02,  avg # of iterations =  2.1
 enter write_ns
U( 1) =  0.0000      U( 2) =  3.1000      U( 3) =  0.0000
alpha( 1) =  0.0000      alpha( 2) =  0.0000      alpha( 3) =  0.0000
atom    1   Tr[ns(na)]=   2.9580983
atom    1   spin  1
eigenvalues:  0.2073911 0.3140887 0.3213767 0.3777232 0.4200715
 eigenvectors
 1  -0.0000000 -0.0000000  0.1420519  0.0000000  0.9898592
 2  -0.0328189 -0.9851994 -0.0000000  0.1682411  0.0000000
 3  -0.0000000  0.0000000 -0.9898592 -0.0000000  0.1420519
 4  -0.0390388  0.1694669  0.0000000  0.9847624 -0.0000000
 5  -0.9986986  0.0257509  0.0000000 -0.0440227 -0.0000000
 occupations
 0.420 -0.003 -0.000  0.002  0.000
-0.003  0.316 -0.000  0.010  0.000
-0.000 -0.000  0.319  0.000 -0.016
 0.002  0.010  0.000  0.376 -0.000
 0.000  0.000 -0.016 -0.000  0.210
atom    1   spin  2
eigenvalues:  0.1534101 0.2384113 0.2446335 0.3213900 0.3596024
 eigenvectors
 1  -0.0000000 -0.0000000  0.1922866  0.0000000  0.9813388
 2  -0.0354044 -0.9832441 -0.0000000  0.1788226  0.0000000
 3   0.0000000  0.0000000 -0.9813388 -0.0000000  0.1922866
 4   0.0058481  0.1787279  0.0000000  0.9838812 -0.0000000
 5  -0.9993560  0.0358795  0.0000000 -0.0005777 -0.0000000
 occupations
 0.359 -0.004 -0.000  0.001  0.000
-0.004  0.241 -0.000  0.015  0.000
-0.000 -0.000  0.241  0.000 -0.017
 0.001  0.015  0.000  0.319 -0.000
 0.000  0.000 -0.017 -0.000  0.157
atom    2   Tr[ns(na)]=   2.9956451
atom    2   spin  1
eigenvalues:  0.2022026 0.3258339 0.3314893 0.3742265 0.4295611
 eigenvectors
 1  -0.0000000 -0.0000000  0.1082844  0.0000000  0.9941200
 2  -0.0306993 -0.9542952 -0.0000000  0.2972849  0.0000000
 3   0.0000000  0.0000000 -0.9941200 -0.0000000  0.1082844
 4  -0.0002659  0.2974329  0.0000000  0.9547427 -0.0000000
 5  -0.9995286  0.0292309  0.0000000 -0.0093848 -0.0000000
 occupations
 0.429 -0.003 -0.000  0.001  0.000
-0.003  0.330 -0.000  0.014  0.000
-0.000 -0.000  0.330  0.000 -0.014
 0.001  0.014  0.000  0.370 -0.000
 0.000  0.000 -0.014 -0.000  0.204
atom    2   spin  2
eigenvalues:  0.1505680 0.2457285 0.2505179 0.3182046 0.3673125
 eigenvectors
 1  -0.0000000 -0.0000000  0.1550086  0.0000000  0.9879131
 2  -0.0334666 -0.9685233 -0.0000000  0.2466629  0.0000000
 3   0.0000000  0.0000000 -0.9879131 -0.0000000  0.1550086
 4   0.0231979  0.2459819  0.0000000  0.9689968 -0.0000000
 5  -0.9991706  0.0381511  0.0000000  0.0142355 -0.0000000
 occupations
 0.367 -0.004 -0.000 -0.000  0.000
-0.004  0.250 -0.000  0.017  0.000
-0.000 -0.000  0.248  0.000 -0.015
-0.000  0.017  0.000  0.314 -0.000
 0.000  0.000 -0.015 -0.000  0.153
atom    3   Tr[ns(na)]=   2.9819827
atom    3   spin  1
eigenvalues:  0.2088297 0.3197611 0.3217522 0.3780360 0.4252625
 eigenvectors
 1   0.0075623  0.0067631  0.1135225  0.0069196  0.9934595
 2   0.0077437  0.0380780 -0.9924752  0.0271294  0.1129029
 3   0.0159372  0.9538828  0.0276896 -0.2983750 -0.0077009
 4  -0.0986758 -0.2942850 -0.0364837 -0.9498132  0.0135391
 5  -0.9949331  0.0448141 -0.0027997  0.0896851  0.0069637
 occupations
 0.425 -0.003  0.000 -0.004 -0.002
-0.003  0.327  0.001  0.016 -0.001
 0.000  0.001  0.318  0.002 -0.013
-0.004  0.016  0.002  0.373 -0.001
-0.002 -0.001 -0.013 -0.001  0.210
atom    3   spin  2
eigenvalues:  0.1555404 0.2426720 0.2440089 0.3217659 0.3643540
 eigenvectors
 1   0.0055866  0.0064336  0.1658220  0.0038969  0.9861112
 2   0.0097176  0.1776069 -0.9703267 -0.0238310  0.1620481
 3   0.0234727  0.9505430  0.1746489 -0.2533980 -0.0347016
 4  -0.1218349 -0.2487539 -0.0215349 -0.9605828  0.0097304
 5  -0.9922095  0.0548076 -0.0017937  0.1117453  0.0051236
 occupations
 0.364 -0.004  0.000 -0.004 -0.001
-0.004  0.249  0.001  0.019 -0.001
 0.000  0.001  0.240  0.001 -0.014
-0.004  0.019  0.001  0.317 -0.001
-0.001 -0.001 -0.014 -0.001  0.158
atom    4   Tr[ns(na)]=   2.9915645
atom    4   spin  1
eigenvalues:  0.2070451 0.3232947 0.3245970 0.3768136 0.4281042
 eigenvectors
 1   0.0063578  0.0028643  0.1047800  0.0059339  0.9944533
 2   0.0067259  0.0790827 -0.9913779  0.0046774  0.1041573
 3   0.0141582  0.9399194  0.0726131 -0.3331768 -0.0084605
 4  -0.0935274 -0.3290576 -0.0302287 -0.9391236  0.0103345
 5  -0.9954730  0.0448365 -0.0021562  0.0835641  0.0059637
 occupations
 0.428 -0.003  0.000 -0.004 -0.001
-0.003  0.330  0.001  0.017 -0.000
 0.000  0.001  0.322  0.001 -0.012
-0.004  0.017  0.001  0.371 -0.001
-0.001 -0.000 -0.012 -0.001  0.208
atom    4   spin  2
eigenvalues:  0.1542164 0.2445781 0.2458123 0.3205015 0.3666016
 eigenvectors
 1   0.0047808  0.0022625  0.1562256  0.0038133  0.9876999
 2   0.0088157  0.1853911 -0.9700409 -0.0336901  0.1530952
 3   0.0233478  0.9447025  0.1852429 -0.2678510 -0.0305430
 4  -0.1143361 -0.2649640 -0.0172349 -0.9572705  0.0075822
 5  -0.9931171  0.0543711 -0.0015196  0.1036313  0.0045227
 occupations
 0.366 -0.004  0.000 -0.004 -0.001
-0.004  0.251  0.001  0.020 -0.000
 0.000  0.001  0.242  0.001 -0.014
-0.004  0.020  0.001  0.316 -0.001
-0.001 -0.000 -0.014 -0.001  0.156
atom    5   Tr[ns(na)]=   2.9819827
atom    5   spin  1
eigenvalues:  0.2088297 0.3197611 0.3217522 0.3780360 0.4252625
 eigenvectors
 1  -0.0075623 -0.0067631  0.1135225 -0.0069196  0.9934595
 2   0.0077437  0.0380780  0.9924752  0.0271294 -0.1129029
 3  -0.0159372 -0.9538828  0.0276896  0.2983750 -0.0077009
 4  -0.0986758 -0.2942850  0.0364837 -0.9498132 -0.0135391
 5  -0.9949331  0.0448141  0.0027997  0.0896851 -0.0069637
 occupations
 0.425 -0.003 -0.000 -0.004  0.002
-0.003  0.327 -0.001  0.016  0.001
-0.000 -0.001  0.318 -0.002 -0.013
-0.004  0.016 -0.002  0.373  0.001
 0.002  0.001 -0.013  0.001  0.210
atom    5   spin  2
eigenvalues:  0.1555404 0.2426720 0.2440089 0.3217659 0.3643540
 eigenvectors
 1  -0.0055866 -0.0064336  0.1658220 -0.0038969  0.9861112
 2   0.0097176  0.1776069  0.9703267 -0.0238310 -0.1620481
 3  -0.0234727 -0.9505430  0.1746489  0.2533980 -0.0347016
 4  -0.1218349 -0.2487539  0.0215349 -0.9605828 -0.0097304
 5  -0.9922095  0.0548076  0.0017937  0.1117453 -0.0051236
 occupations
 0.364 -0.004 -0.000 -0.004  0.001
-0.004  0.249 -0.001  0.019  0.001
-0.000 -0.001  0.240 -0.001 -0.014
-0.004  0.019 -0.001  0.317  0.001
 0.001  0.001 -0.014  0.001  0.158
atom    6   Tr[ns(na)]=   2.9915645
atom    6   spin  1
eigenvalues:  0.2070451 0.3232947 0.3245970 0.3768136 0.4281042
 eigenvectors
 1  -0.0063578 -0.0028643  0.1047800 -0.0059339  0.9944533
 2   0.0067259  0.0790827  0.9913779  0.0046774 -0.1041573
 3  -0.0141582 -0.9399194  0.0726131  0.3331768 -0.0084605
 4  -0.0935274 -0.3290576  0.0302287 -0.9391236 -0.0103345
 5  -0.9954730  0.0448365  0.0021562  0.0835641 -0.0059637
 occupations
 0.428 -0.003 -0.000 -0.004  0.001
-0.003  0.330 -0.001  0.017  0.000
-0.000 -0.001  0.322 -0.001 -0.012
-0.004  0.017 -0.001  0.371  0.001
 0.001  0.000 -0.012  0.001  0.208
atom    6   spin  2
eigenvalues:  0.1542164 0.2445781 0.2458123 0.3205015 0.3666016
 eigenvectors
 1  -0.0047808 -0.0022625  0.1562256 -0.0038133  0.9876999
 2   0.0088157  0.1853911  0.9700409 -0.0336901 -0.1530952
 3  -0.0233478 -0.9447025  0.1852429  0.2678510 -0.0305430
 4  -0.1143361 -0.2649640  0.0172349 -0.9572705 -0.0075822
 5  -0.9931171  0.0543711  0.0015196  0.1036313 -0.0045227
 occupations
 0.366 -0.004 -0.000 -0.004  0.001
-0.004  0.251 -0.001  0.020  0.000
-0.000 -0.001  0.242 -0.001 -0.014
-0.004  0.020 -0.001  0.316  0.001
 0.001  0.000 -0.014  0.001  0.156
atom    7   Tr[ns(na)]=   2.9772658
atom    7   spin  1
eigenvalues:  0.2105916 0.3180371 0.3202575 0.3771455 0.4251741
 eigenvectors
 1  -0.0031610 -0.0044862  0.1058862 -0.0029853  0.9943586
 2  -0.0228751 -0.9408027  0.0161575  0.3377583 -0.0050239
 3   0.0030149  0.0216522  0.9940908  0.0113878 -0.1057162
 4   0.0868049  0.3343910 -0.0176059  0.9382407  0.0064762
 5   0.9959531 -0.0508329 -0.0007676 -0.0740611  0.0027962
 occupations
 0.425 -0.004 -0.000 -0.003  0.001
-0.004  0.325 -0.000  0.019  0.001
-0.000 -0.000  0.319 -0.001 -0.012
-0.003  0.019 -0.001  0.371  0.001
 0.001  0.001 -0.012  0.001  0.212
atom    7   spin  2
eigenvalues:  0.1566801 0.2413522 0.2426730 0.3210049 0.3643497
 eigenvectors
 1  -0.0022571 -0.0036651  0.1606291 -0.0020622  0.9870033
 2  -0.0297821 -0.9599492 -0.0210166  0.2777926  0.0003680
 3   0.0016250 -0.0170287  0.9867366  0.0161940 -0.1606114
 4   0.1119286  0.2732173 -0.0103425  0.9553496  0.0049498
 5   0.9932660 -0.0595517 -0.0007140 -0.0993577  0.0019589
 occupations
 0.364 -0.005 -0.000 -0.004  0.000
-0.005  0.248 -0.000  0.022  0.000
-0.000 -0.000  0.240 -0.001 -0.014
-0.004  0.022 -0.001  0.315  0.001
 0.000  0.000 -0.014  0.001  0.159
atom    8   Tr[ns(na)]=   2.9846362
atom    8   spin  1
eigenvalues:  0.2084305 0.3207901 0.3233540 0.3757784 0.4276678
 eigenvectors
 1  -0.0034039 -0.0033867  0.1033823 -0.0020654  0.9946280
 2  -0.0216234 -0.9292301  0.0356342  0.3670912 -0.0061796
 3   0.0036674  0.0404638  0.9938269  0.0044345 -0.1031395
 4   0.0804166  0.3638870 -0.0186935  0.9277613  0.0053838
 5   0.9965142 -0.0496888 -0.0010226 -0.0669262  0.0032085
 occupations
 0.427 -0.004 -0.000 -0.003  0.001
-0.004  0.328 -0.000  0.019  0.000
-0.000 -0.000  0.322 -0.001 -0.012
-0.003  0.019 -0.001  0.369  0.000
 0.001  0.000 -0.012  0.000  0.210
atom    8   spin  2
eigenvalues:  0.1552921 0.2430722 0.2443468 0.3196412 0.3662630
 eigenvectors
 1  -0.0023485 -0.0024441  0.1570137 -0.0019678  0.9875887
 2  -0.0297188 -0.9563655 -0.0133433  0.2903511  0.0002625
 3   0.0020227 -0.0096124  0.9874523  0.0140666 -0.1569829
 4   0.1014236  0.2862345 -0.0102806  0.9527105  0.0044823
 5   0.9943945 -0.0577631 -0.0009880 -0.0885278  0.0022024
 occupations
 0.366 -0.005 -0.000 -0.003  0.001
-0.005  0.250 -0.000  0.022  0.000
-0.000 -0.000  0.242 -0.001 -0.014
-0.003  0.022 -0.001  0.314  0.000
 0.001  0.000 -0.014  0.000  0.157
atom    9   Tr[ns(na)]=   2.9779197
atom    9   spin  1
eigenvalues:  0.2108413 0.3184201 0.3191338 0.3773631 0.4263979
 eigenvectors
 1  -0.0000000 -0.0000000  0.1070006  0.0000000  0.9942590
 2  -0.0000000 -0.0000000 -0.9942590  0.0000000  0.1070006
 3  -0.0156728 -0.9367629  0.0000000  0.3496135 -0.0000000
 4   0.1239913  0.3451368  0.0000000  0.9303262 -0.0000000
 5  -0.9921595  0.0579299  0.0000000  0.1107412 -0.0000000
 occupations
 0.426 -0.004 -0.000 -0.005  0.000
-0.004  0.326 -0.000  0.019  0.000
-0.000 -0.000  0.317  0.000 -0.011
-0.005  0.019  0.000  0.371 -0.000
 0.000  0.000 -0.011 -0.000  0.212
atom    9   spin  2
eigenvalues:  0.1566399 0.2410612 0.2416861 0.3210074 0.3653690
 eigenvectors
 1  -0.0000000 -0.0000000  0.1654077  0.0000000  0.9862253
 2  -0.0000000 -0.0000000 -0.9862253  0.0000000  0.1654077
 3  -0.0270440 -0.9583414  0.0000000  0.2843421 -0.0000000
 4   0.1426606  0.2778345  0.0000000  0.9499768 -0.0000000
 5  -0.9894021  0.0662556  0.0000000  0.1292038 -0.0000000
 occupations
 0.364 -0.005 -0.000 -0.005  0.000
-0.005  0.248 -0.000  0.022  0.000
-0.000 -0.000  0.239  0.000 -0.014
-0.005  0.022  0.000  0.315 -0.000
 0.000  0.000 -0.014 -0.000  0.159
atom   10   Tr[ns(na)]=   2.9808490
atom   10   spin  1
eigenvalues:  0.2098515 0.3198986 0.3201285 0.3766371 0.4275141
 eigenvectors
 1  -0.0000000 -0.0000000  0.1054410  0.0000000  0.9944256
 2  -0.0000000 -0.0000000 -0.9944256  0.0000000  0.1054410
 3  -0.0153689 -0.9326661  0.0000000  0.3604133 -0.0000000
 4   0.1201469  0.3561215  0.0000000  0.9266834 -0.0000000
 5  -0.9926372  0.0575446  0.0000000  0.1065838 -0.0000000
 occupations
 0.427 -0.004 -0.000 -0.005  0.000
-0.004  0.328 -0.000  0.019  0.000
-0.000 -0.000  0.319  0.000 -0.012
-0.005  0.019  0.000  0.370 -0.000
 0.000  0.000 -0.012 -0.000  0.211
atom   10   spin  2
eigenvalues:  0.1560167 0.2419414 0.2422894 0.3203321 0.3662395
 eigenvectors
 1  -0.0000000 -0.0000000  0.1628647  0.0000000  0.9866484
 2  -0.0000000 -0.0000000 -0.9866484  0.0000000  0.1628647
 3  -0.0272962 -0.9570475  0.0000000  0.2886433 -0.0000000
 4   0.1382451  0.2823620  0.0000000  0.9492945 -0.0000000
 5  -0.9900218  0.0658156  0.0000000  0.1245997 -0.0000000
 occupations
 0.365 -0.005 -0.000 -0.005  0.000
-0.005  0.249 -0.000  0.022  0.000
-0.000 -0.000  0.240  0.000 -0.014
-0.005  0.022  0.000  0.315 -0.000
 0.000  0.000 -0.014 -0.000  0.158
atom   11   Tr[ns(na)]=   2.9772658
atom   11   spin  1
eigenvalues:  0.2105916 0.3180371 0.3202575 0.3771455 0.4251741
 eigenvectors
 1   0.0031610  0.0044862  0.1058862  0.0029853  0.9943586
 2   0.0228751  0.9408027  0.0161575 -0.3377583 -0.0050239
 3   0.0030149  0.0216522 -0.9940908  0.0113878  0.1057162
 4   0.0868049  0.3343910  0.0176059  0.9382407 -0.0064762
 5   0.9959531 -0.0508329  0.0007676 -0.0740611 -0.0027962
 occupations
 0.425 -0.004  0.000 -0.003 -0.001
-0.004  0.325  0.000  0.019 -0.001
 0.000  0.000  0.319  0.001 -0.012
-0.003  0.019  0.001  0.371 -0.001
-0.001 -0.001 -0.012 -0.001  0.212
atom   11   spin  2
eigenvalues:  0.1566801 0.2413522 0.2426730 0.3210049 0.3643497
 eigenvectors
 1   0.0022571  0.0036651  0.1606291  0.0020622  0.9870033
 2   0.0297821  0.9599492 -0.0210166 -0.2777926  0.0003680
 3   0.0016250 -0.0170287 -0.9867366  0.0161940  0.1606114
 4   0.1119286  0.2732173  0.0103425  0.9553496 -0.0049498
 5   0.9932660 -0.0595517  0.0007140 -0.0993577 -0.0019589
 occupations
 0.364 -0.005  0.000 -0.004 -0.000
-0.005  0.248  0.000  0.022 -0.000
 0.000  0.000  0.240  0.001 -0.014
-0.004  0.022  0.001  0.315 -0.001
-0.000 -0.000 -0.014 -0.001  0.159
atom   12   Tr[ns(na)]=   2.9846362
atom   12   spin  1
eigenvalues:  0.2084305 0.3207901 0.3233540 0.3757784 0.4276678
 eigenvectors
 1   0.0034039  0.0033867  0.1033823  0.0020654  0.9946280
 2   0.0216234  0.9292301  0.0356342 -0.3670912 -0.0061796
 3   0.0036674  0.0404638 -0.9938269  0.0044345  0.1031395
 4   0.0804166  0.3638870  0.0186935  0.9277613 -0.0053838
 5   0.9965142 -0.0496888  0.0010226 -0.0669262 -0.0032085
 occupations
 0.427 -0.004  0.000 -0.003 -0.001
-0.004  0.328  0.000  0.019 -0.000
 0.000  0.000  0.322  0.001 -0.012
-0.003  0.019  0.001  0.369 -0.000
-0.001 -0.000 -0.012 -0.000  0.210
atom   12   spin  2
eigenvalues:  0.1552921 0.2430722 0.2443468 0.3196412 0.3662630
 eigenvectors
 1   0.0023485  0.0024441  0.1570137  0.0019678  0.9875887
 2   0.0297188  0.9563655 -0.0133433 -0.2903511  0.0002625
 3   0.0020227 -0.0096124 -0.9874523  0.0140666  0.1569829
 4   0.1014236  0.2862345  0.0102806  0.9527105 -0.0044823
 5   0.9943945 -0.0577631  0.0009880 -0.0885278 -0.0022024
 occupations
 0.366 -0.005  0.000 -0.003 -0.001
-0.005  0.250  0.000  0.022 -0.000
 0.000  0.000  0.242  0.001 -0.014
-0.003  0.022  0.001  0.314 -0.000
-0.001 -0.000 -0.014 -0.000  0.157
atom   13   Tr[ns(na)]=   3.0098334
atom   13   spin  1
eigenvalues:  0.2340685 0.3109909 0.3157979 0.3879024 0.4232110
 eigenvectors
 1   0.0104014 -0.0329827 -0.0422230  0.0173662  0.9983584
 2   0.0120581  0.1183979  0.9854255  0.1134986  0.0434877
 3   0.0033615 -0.9253856  0.1518845 -0.3467735 -0.0181513
 4  -0.2630970  0.3453726  0.0637183 -0.8979887  0.0324662
 5  -0.9646321 -0.0962985 -0.0049867  0.2453181  0.0023905
 occupations
 0.421  0.003 -0.001 -0.008 -0.002
 0.003  0.325  0.001 -0.025  0.003
-0.001  0.001  0.311 -0.005  0.003
-0.008 -0.025 -0.005  0.380 -0.003
-0.002  0.003  0.003 -0.003  0.234
atom   13   spin  2
eigenvalues:  0.1701366 0.2366637 0.2404756 0.3281693 0.3624175
 eigenvectors
 1   0.0064729 -0.0303010 -0.1215956  0.0080310  0.9920635
 2   0.0073093  0.1063784  0.9832418  0.0819997  0.1230520
 3   0.0193851 -0.9446672  0.1285133 -0.3009916 -0.0107915
 4  -0.2629776  0.2927874  0.0438955 -0.9179546  0.0234699
 5  -0.9645578 -0.0982083 -0.0027501  0.2448979  0.0009742
 occupations
 0.360  0.005 -0.001 -0.008 -0.001
 0.005  0.249  0.001 -0.027  0.003
-0.001  0.001  0.236 -0.004  0.008
-0.008 -0.027 -0.004  0.322 -0.002
-0.001  0.003  0.008 -0.002  0.171
atom   14   Tr[ns(na)]=   3.0574055
atom   14   spin  1
eigenvalues:  0.2213608 0.3296093 0.3325946 0.3806464 0.4369459
 eigenvectors
 1   0.0100340 -0.0050695 -0.0700429  0.0190097  0.9972995
 2  -0.0143655 -0.6829445 -0.5784482 -0.4444313 -0.0354815
 3   0.0096075 -0.5322416  0.8094798 -0.2406879  0.0586374
 4   0.1520956 -0.4951429 -0.0722099  0.8519643 -0.0253581
 5   0.9881637  0.0715090 -0.0044538 -0.1354460 -0.0073096
 occupations
 0.436  0.004 -0.001 -0.008 -0.002
 0.004  0.344  0.000 -0.022  0.001
-0.001  0.000  0.331 -0.004  0.008
-0.008 -0.022 -0.004  0.369 -0.003
-0.002  0.001  0.008 -0.003  0.222
atom   14   spin  2
eigenvalues:  0.1618555 0.2491518 0.2507972 0.3210044 0.3734396
 eigenvectors
 1   0.0068921 -0.0053713 -0.1283762  0.0113921  0.9916216
 2   0.0022987  0.3766652  0.8990983  0.1903407  0.1162357
 3   0.0208940 -0.8514506  0.4162818 -0.3138838  0.0527409
 4   0.1634149 -0.3567951 -0.0429280  0.9185762 -0.0191788
 5   0.9863094  0.0763118 -0.0029045 -0.1460665 -0.0051397
 occupations
 0.372  0.005 -0.001 -0.007 -0.001
 0.005  0.260  0.000 -0.024  0.001
-0.001  0.000  0.248 -0.003  0.011
-0.007 -0.024 -0.003  0.313 -0.002
-0.001  0.001  0.011 -0.002  0.163
atom   15   Tr[ns(na)]=   2.9864613
atom   15   spin  1
eigenvalues:  0.2149588 0.3158147 0.3222304 0.3774703 0.4264733
 eigenvectors
 1  -0.0000000 -0.0000000 -0.0841556  0.0000000  0.9964526
 2   0.0000000  0.0000000  0.9964526  0.0000000  0.0841556
 3  -0.0042610 -0.9247863  0.0000000 -0.3804631  0.0000000
 4  -0.1851950  0.3746148 -0.0000000 -0.9084969  0.0000000
 5  -0.9826926 -0.0665887  0.0000000  0.1728620 -0.0000000
 occupations
 0.425  0.003 -0.000 -0.008  0.000
 0.003  0.330 -0.000 -0.020  0.000
-0.000 -0.000  0.315  0.000  0.008
-0.008 -0.020  0.000  0.371 -0.000
 0.000  0.000  0.008 -0.000  0.216
atom   15   spin  2
eigenvalues:  0.1589657 0.2393657 0.2447751 0.3208826 0.3655248
 eigenvectors
 1  -0.0000000 -0.0000000 -0.1443714  0.0000000  0.9895236
 2  -0.0000000  0.0000000  0.9895236  0.0000000  0.1443714
 3  -0.0153138  0.9534634 -0.0000000  0.3011195 -0.0000000
 4   0.1972582 -0.2923554  0.0000000  0.9357444 -0.0000000
 5  -0.9802320 -0.0737281  0.0000000  0.1836014 -0.0000000
 occupations
 0.364  0.004 -0.000 -0.008  0.000
 0.004  0.252 -0.000 -0.022  0.000
-0.000 -0.000  0.238  0.000  0.011
-0.008 -0.022  0.000  0.315 -0.000
 0.000  0.000  0.011 -0.000  0.161
atom   16   Tr[ns(na)]=   2.9942885
atom   16   spin  1
eigenvalues:  0.2126596 0.3195713 0.3248976 0.3756588 0.4291596
 eigenvectors
 1  -0.0000000 -0.0000000 -0.0860270  0.0000000  0.9962928
 2   0.0000000  0.0000000  0.9962928  0.0000000  0.0860270
 3  -0.0088550 -0.9098240  0.0000000 -0.4148998  0.0000000
 4  -0.1725233  0.4100841 -0.0000000 -0.8955818  0.0000000
 5  -0.9849656 -0.0636495  0.0000000  0.1605971 -0.0000000
 occupations
 0.428  0.003 -0.000 -0.009  0.000
 0.003  0.334 -0.000 -0.020  0.000
-0.000 -0.000  0.319  0.000  0.009
-0.009 -0.020  0.000  0.368 -0.000
 0.000  0.000  0.009 -0.000  0.213
atom   16   spin  2
eigenvalues:  0.1573957 0.2414928 0.2466370 0.3191111 0.3677048
 eigenvectors
 1  -0.0000000 -0.0000000 -0.1444755  0.0000000  0.9895084
 2  -0.0000000  0.0000000  0.9895084  0.0000000  0.1444755
 3  -0.0134890  0.9489956 -0.0000000  0.3150007 -0.0000000
 4   0.1857555 -0.3071673  0.0000000  0.9333505 -0.0000000
 5  -0.9825034 -0.0711031  0.0000000  0.1721377 -0.0000000
 occupations
 0.366  0.004 -0.000 -0.008  0.000
 0.004  0.254 -0.000 -0.022  0.000
-0.000 -0.000  0.240  0.000  0.012
-0.008 -0.022  0.000  0.313 -0.000
 0.000  0.000  0.012 -0.000  0.159
atom   17   Tr[ns(na)]=   3.0098334
atom   17   spin  1
eigenvalues:  0.2340685 0.3109909 0.3157979 0.3879024 0.4232110
 eigenvectors
 1  -0.0104014  0.0329827 -0.0422230 -0.0173662  0.9983584
 2   0.0120581  0.1183979 -0.9854255  0.1134986 -0.0434877
 3  -0.0033615  0.9253856  0.1518845  0.3467735 -0.0181513
 4  -0.2630970  0.3453726 -0.0637183 -0.8979887 -0.0324662
 5  -0.9646321 -0.0962985  0.0049867  0.2453181 -0.0023905
 occupations
 0.421  0.003  0.001 -0.008  0.002
 0.003  0.325 -0.001 -0.025 -0.003
 0.001 -0.001  0.311  0.005  0.003
-0.008 -0.025  0.005  0.380  0.003
 0.002 -0.003  0.003  0.003  0.234
atom   17   spin  2
eigenvalues:  0.1701366 0.2366637 0.2404756 0.3281693 0.3624175
 eigenvectors
 1  -0.0064729  0.0303010 -0.1215956 -0.0080310  0.9920635
 2   0.0073093  0.1063784 -0.9832418  0.0819997 -0.1230520
 3  -0.0193851  0.9446672  0.1285133  0.3009916 -0.0107915
 4  -0.2629776  0.2927874 -0.0438955 -0.9179546 -0.0234699
 5  -0.9645578 -0.0982083  0.0027501  0.2448979 -0.0009742
 occupations
 0.360  0.005  0.001 -0.008  0.001
 0.005  0.249 -0.001 -0.027 -0.003
 0.001 -0.001  0.236  0.004  0.008
-0.008 -0.027  0.004  0.322  0.002
 0.001 -0.003  0.008  0.002  0.171
atom   18   Tr[ns(na)]=   3.0574055
atom   18   spin  1
eigenvalues:  0.2213608 0.3296093 0.3325946 0.3806464 0.4369459
 eigenvectors
 1  -0.0100340  0.0050695 -0.0700429 -0.0190097  0.9972995
 2   0.0143655  0.6829445 -0.5784482  0.4444313 -0.0354815
 3   0.0096075 -0.5322416 -0.8094798 -0.2406879 -0.0586374
 4   0.1520956 -0.4951429  0.0722099  0.8519643  0.0253581
 5   0.9881637  0.0715090  0.0044538 -0.1354460  0.0073096
 occupations
 0.436  0.004  0.001 -0.008  0.002
 0.004  0.344 -0.000 -0.022 -0.001
 0.001 -0.000  0.331  0.004  0.008
-0.008 -0.022  0.004  0.369  0.003
 0.002 -0.001  0.008  0.003  0.222
atom   18   spin  2
eigenvalues:  0.1618555 0.2491518 0.2507972 0.3210044 0.3734396
 eigenvectors
 1  -0.0068921  0.0053713 -0.1283762 -0.0113921  0.9916216
 2   0.0022987  0.3766652 -0.8990983  0.1903407 -0.1162357
 3  -0.0208940  0.8514506  0.4162818  0.3138838  0.0527409
 4   0.1634149 -0.3567951  0.0429280  0.9185762  0.0191788
 5   0.9863094  0.0763118  0.0029045 -0.1460665  0.0051397
 occupations
 0.372  0.005  0.001 -0.007  0.001
 0.005  0.260 -0.000 -0.024 -0.001
 0.001 -0.000  0.248  0.003  0.011
-0.007 -0.024  0.003  0.313  0.002
 0.001 -0.001  0.011  0.002  0.163
atom   19   Tr[ns(na)]=   3.1501255
atom   19   spin  1
eigenvalues:  0.3111062 0.3363849 0.3429592 0.3505983 0.4677623
 eigenvectors
 1  -0.0000000 -0.0000000 -0.9514902  0.0000000 -0.3076789
 2   0.3604077  0.9292235  0.0000000  0.0815476 -0.0000000
 3  -0.0000000  0.0000000 -0.3076789  0.0000000  0.9514902
 4   0.9316593 -0.3629032 -0.0000000  0.0176702  0.0000000
 5   0.0460134  0.0696061 -0.0000000 -0.9965128  0.0000000
 occupations
 0.349 -0.004 -0.000 -0.006  0.000
-0.004  0.339 -0.000 -0.009  0.000
-0.000 -0.000  0.314  0.000 -0.009
-0.006 -0.009  0.000  0.467 -0.000
 0.000  0.000 -0.009 -0.000  0.340
atom   19   spin  2
eigenvalues:  0.2072164 0.2251596 0.2314969 0.2864786 0.3909630
 eigenvectors
 1  -0.0000000 -0.0000000 -0.9854926  0.0000000  0.1697185
 2  -0.0110462 -0.9931909  0.0000000 -0.1159730  0.0000000
 3  -0.0000000  0.0000000  0.1697185  0.0000000  0.9854926
 4  -0.9983911  0.0174054  0.0000000 -0.0539645 -0.0000000
 5   0.0556156  0.1151903 -0.0000000 -0.9917853  0.0000000
 occupations
 0.287 -0.000 -0.000 -0.006  0.000
-0.000  0.227 -0.000 -0.019  0.000
-0.000 -0.000  0.208  0.000  0.004
-0.006 -0.019  0.000  0.388 -0.000
 0.000  0.000  0.004 -0.000  0.231
atom   20   Tr[ns(na)]=   3.2010822
atom   20   spin  1
eigenvalues:  0.2271686 0.3589064 0.3612644 0.3871046 0.4528737
 eigenvectors
 1  -0.0000000 -0.0000000 -0.0647173  0.0000000  0.9979036
 2  -0.0130475 -0.8159873 -0.0000000 -0.5779226 -0.0000000
 3   0.0000000 -0.0000000  0.9979036 -0.0000000  0.0647173
 4  -0.0875970  0.5766824 -0.0000000 -0.8122587  0.0000000
 5   0.9960705  0.0400263 -0.0000000 -0.0790023  0.0000000
 occupations
 0.452  0.002 -0.000 -0.005  0.000
 0.002  0.368 -0.000 -0.014  0.000
-0.000 -0.000  0.361  0.000  0.009
-0.005 -0.014  0.000  0.378 -0.000
 0.000  0.000  0.009 -0.000  0.228
atom   20   spin  2
eigenvalues:  0.1659403 0.2695365 0.2704013 0.3243065 0.3835799
 eigenvectors
 1  -0.0000000 -0.0000000 -0.1161603  0.0000000  0.9932305
 2  -0.0000000  0.0000000  0.9932305  0.0000000  0.1161603
 3  -0.0155209  0.9391450 -0.0000000  0.3431701 -0.0000000
 4  -0.1076392  0.3396475 -0.0000000 -0.9343732  0.0000000
 5   0.9940689  0.0514409 -0.0000000 -0.0958172  0.0000000
 occupations
 0.383  0.004 -0.000 -0.005  0.000
 0.004  0.277 -0.000 -0.018  0.000
-0.000 -0.000  0.268  0.000  0.012
-0.005 -0.018  0.000  0.319 -0.000
 0.000  0.000  0.012 -0.000  0.167
atom   21   Tr[ns(na)]=   2.9902411
atom   21   spin  1
eigenvalues:  0.2184900 0.3114455 0.3238703 0.3808187 0.4249744
 eigenvectors
 1  -0.0196154  0.0212813 -0.0810257 -0.0316405  0.9957892
 2   0.0217470  0.0353106 -0.9886789  0.1219879 -0.0768973
 3  -0.0056279 -0.9446825 -0.0735966 -0.3195485  0.0039363
 4   0.2188276 -0.3186843  0.1025828  0.9152456  0.0485495
 5  -0.9753077 -0.0656920  0.0030254  0.2105519 -0.0108717
 occupations
 0.423  0.003  0.001 -0.009  0.004
 0.003  0.330 -0.001 -0.018 -0.003
 0.001 -0.001  0.312  0.007  0.008
-0.009 -0.018  0.007  0.376  0.006
 0.004 -0.003  0.008  0.006  0.219
atom   21   spin  2
eigenvalues:  0.1607050 0.2366344 0.2459346 0.3232608 0.3641074
 eigenvectors
 1  -0.0141514  0.0208519 -0.1439538 -0.0174969  0.9891087
 2   0.0148737 -0.0041970 -0.9870509  0.0728658 -0.1420641
 3  -0.0121570  0.9614179  0.0178227  0.2739362 -0.0130024
 4  -0.2282479  0.2640156 -0.0684259 -0.9339538 -0.0353113
 5  -0.9733106 -0.0742892  0.0028330  0.2169648 -0.0081089
 occupations
 0.362  0.004  0.001 -0.009  0.003
 0.004  0.252 -0.001 -0.021 -0.002
 0.001 -0.001  0.235  0.005  0.011
-0.009 -0.021  0.005  0.319  0.004
 0.003 -0.002  0.011  0.004  0.162
atom   22   Tr[ns(na)]=   3.0146753
atom   22   spin  1
eigenvalues:  0.2113581 0.3237791 0.3304727 0.3769626 0.4319603
 eigenvectors
 1  -0.0145258  0.0036344 -0.0805940 -0.0241449  0.9963420
 2   0.0176814  0.0399756 -0.9906455  0.1034526 -0.0775142
 3   0.0106763  0.9137688  0.0776695  0.3983932  0.0127596
 4   0.1648755 -0.4002957  0.0780153  0.8974820  0.0319238
 5   0.9859911  0.0563790  0.0026909 -0.1565999  0.0105919
 occupations
 0.430  0.003  0.001 -0.009  0.003
 0.003  0.338 -0.001 -0.018 -0.001
 0.001 -0.001  0.323  0.004  0.009
-0.009 -0.018  0.004  0.370  0.004
 0.003 -0.001  0.009  0.004  0.212
atom   22   spin  2
eigenvalues:  0.1562024 0.2442735 0.2503068 0.3195894 0.3697703
 eigenvectors
 1  -0.0111267  0.0031531 -0.1349183 -0.0161435  0.9906577
 2   0.0118738 -0.0213739 -0.9897458  0.0433590 -0.1338861
 3  -0.0110448  0.9517451 -0.0073677  0.3066013  0.0008396
 4   0.1813160 -0.2989056  0.0462908  0.9354331  0.0245358
 5   0.9832282  0.0661058  0.0018065 -0.1697643  0.0083125
 occupations
 0.368  0.004  0.001 -0.008  0.002
 0.004  0.257 -0.001 -0.021 -0.001
 0.001 -0.001  0.243  0.003  0.012
-0.008 -0.021  0.003  0.314  0.003
 0.002 -0.001  0.012  0.003  0.158
atom   23   Tr[ns(na)]=   2.9902411
atom   23   spin  1
eigenvalues:  0.2184900 0.3114455 0.3238703 0.3808187 0.4249744
 eigenvectors
 1   0.0196154 -0.0212813 -0.0810257  0.0316405  0.9957892
 2   0.0217470  0.0353106  0.9886789  0.1219879  0.0768973
 3   0.0056279  0.9446825 -0.0735966  0.3195485  0.0039363
 4   0.2188276 -0.3186843 -0.1025828  0.9152456 -0.0485495
 5  -0.9753077 -0.0656920 -0.0030254  0.2105519  0.0108717
 occupations
 0.423  0.003 -0.001 -0.009 -0.004
 0.003  0.330  0.001 -0.018  0.003
-0.001  0.001  0.312 -0.007  0.008
-0.009 -0.018 -0.007  0.376 -0.006
-0.004  0.003  0.008 -0.006  0.219
atom   23   spin  2
eigenvalues:  0.1607050 0.2366344 0.2459346 0.3232608 0.3641074
 eigenvectors
 1   0.0141514 -0.0208519 -0.1439538  0.0174969  0.9891087
 2   0.0148737 -0.0041970  0.9870509  0.0728658  0.1420641
 3   0.0121570 -0.9614179  0.0178227 -0.2739362 -0.0130024
 4  -0.2282479  0.2640156  0.0684259 -0.9339538  0.0353113
 5  -0.9733106 -0.0742892 -0.0028330  0.2169648  0.0081089
 occupations
 0.362  0.004 -0.001 -0.009 -0.003
 0.004  0.252  0.001 -0.021  0.002
-0.001  0.001  0.235 -0.005  0.011
-0.009 -0.021 -0.005  0.319 -0.004
-0.003  0.002  0.011 -0.004  0.162
atom   24   Tr[ns(na)]=   3.0146753
atom   24   spin  1
eigenvalues:  0.2113581 0.3237791 0.3304727 0.3769626 0.4319603
 eigenvectors
 1   0.0145258 -0.0036344 -0.0805940  0.0241449  0.9963420
 2   0.0176814  0.0399756  0.9906455  0.1034526  0.0775142
 3  -0.0106763 -0.9137688  0.0776695 -0.3983932  0.0127596
 4   0.1648755 -0.4002957 -0.0780153  0.8974820 -0.0319238
 5   0.9859911  0.0563790 -0.0026909 -0.1565999 -0.0105919
 occupations
 0.430  0.003 -0.001 -0.009 -0.003
 0.003  0.338  0.001 -0.018  0.001
-0.001  0.001  0.323 -0.004  0.009
-0.009 -0.018 -0.004  0.370 -0.004
-0.003  0.001  0.009 -0.004  0.212
atom   24   spin  2
eigenvalues:  0.1562024 0.2442735 0.2503068 0.3195894 0.3697703
 eigenvectors
 1   0.0111267 -0.0031531 -0.1349183  0.0161435  0.9906577
 2   0.0118738 -0.0213739  0.9897458  0.0433590  0.1338861
 3   0.0110448 -0.9517451 -0.0073677 -0.3066013  0.0008396
 4   0.1813160 -0.2989056 -0.0462908  0.9354331 -0.0245358
 5   0.9832282  0.0661058 -0.0018065 -0.1697643 -0.0083125
 occupations
 0.368  0.004 -0.001 -0.008 -0.002
 0.004  0.257  0.001 -0.021  0.001
-0.001  0.001  0.243 -0.003  0.012
-0.008 -0.021 -0.003  0.314 -0.003
-0.002  0.001  0.012 -0.003  0.158
nsum =  72.2596786
 exit write_ns

     negative rho (up, down):  0.912E-02 0.100E-01

     total cpu time spent up to now is     88.07 secs

     total energy              =   -5389.41616805 Ry
     Harris-Foulkes estimate   =   -5397.65198838 Ry
     estimated scf accuracy    <      52.21338642 Ry

     total magnetization       =     0.00 Bohr mag/cell
     absolute magnetization    =    11.60 Bohr mag/cell

     iteration #  2     ecut=    30.00 Ry     beta=0.30
     Davidson diagonalization with overlap
     ethr =  7.77E-03,  avg # of iterations =  1.0

     negative rho (up, down):  0.104E-01 0.116E-01

     total cpu time spent up to now is    139.51 secs

     total energy              =   -5388.90157883 Ry
     Harris-Foulkes estimate   =   -5391.78471980 Ry
     estimated scf accuracy    <      31.04042759 Ry

     total magnetization       =     0.64 Bohr mag/cell
     absolute magnetization    =     6.01 Bohr mag/cell

     iteration #  3     ecut=    30.00 Ry     beta=0.30
     Davidson diagonalization with overlap
     ethr =  4.62E-03,  avg # of iterations =  1.6

     negative rho (up, down):  0.117E-01 0.133E-01

     total cpu time spent up to now is    195.08 secs

     total energy              =   -5389.55527993 Ry
     Harris-Foulkes estimate   =   -5390.52584261 Ry
     estimated scf accuracy    <       5.63443937 Ry

     total magnetization       =     0.00 Bohr mag/cell
     absolute magnetization    =     6.09 Bohr mag/cell

     iteration #  4     ecut=    30.00 Ry     beta=0.30
     Davidson diagonalization with overlap
     ethr =  8.38E-04,  avg # of iterations =  3.4

     negative rho (up, down):  0.102E-01 0.117E-01

     total cpu time spent up to now is    274.31 secs

     total energy              =   -5389.96111639 Ry
     Harris-Foulkes estimate   =   -5390.43089064 Ry
     estimated scf accuracy    <       3.64157162 Ry

     total magnetization       =     0.00 Bohr mag/cell
     absolute magnetization    =     4.68 Bohr mag/cell

     iteration #  5     ecut=    30.00 Ry     beta=0.30
     Davidson diagonalization with overlap
     ethr =  5.42E-04,  avg # of iterations =  3.2

     negative rho (up, down):  0.109E-01 0.126E-01

     total cpu time spent up to now is    344.62 secs

     total energy              =   -5390.14938724 Ry
     Harris-Foulkes estimate   =   -5390.53825850 Ry
     estimated scf accuracy    <       2.93290007 Ry

     total magnetization       =     0.23 Bohr mag/cell
     absolute magnetization    =     4.53 Bohr mag/cell

     iteration #  6     ecut=    30.00 Ry     beta=0.30
     Davidson diagonalization with overlap
     ethr =  4.36E-04,  avg # of iterations =  2.3

     negative rho (up, down):  0.109E-01 0.128E-01

     total cpu time spent up to now is    403.85 secs

     total energy              =   -5390.19866533 Ry
     Harris-Foulkes estimate   =   -5390.32316284 Ry
     estimated scf accuracy    <       2.03114197 Ry

     total magnetization       =     0.48 Bohr mag/cell
     absolute magnetization    =     4.69 Bohr mag/cell

     iteration #  7     ecut=    30.00 Ry     beta=0.30
     Davidson diagonalization with overlap
     ethr =  3.02E-04,  avg # of iterations =  3.4

     negative rho (up, down):  0.111E-01 0.130E-01

     total cpu time spent up to now is    468.93 secs

     total energy              =   -5390.19516631 Ry
     Harris-Foulkes estimate   =   -5390.24739730 Ry
     estimated scf accuracy    <       0.85476576 Ry

     total magnetization       =     0.12 Bohr mag/cell
     absolute magnetization    =     4.16 Bohr mag/cell

     iteration #  8     ecut=    30.00 Ry     beta=0.30
     Davidson diagonalization with overlap
     ethr =  1.27E-04,  avg # of iterations =  8.8

     negative rho (up, down):  0.111E-01 0.128E-01

     total cpu time spent up to now is    564.29 secs

     total energy              =   -5390.19587742 Ry
     Harris-Foulkes estimate   =   -5390.21225788 Ry
     estimated scf accuracy    <       0.25291088 Ry

     total magnetization       =     0.00 Bohr mag/cell
     absolute magnetization    =     3.33 Bohr mag/cell

     iteration #  9     ecut=    30.00 Ry     beta=0.30
     Davidson diagonalization with overlap
     c_bands:  2 eigenvalues not converged
     ethr =  3.76E-05,  avg # of iterations =  9.1

     negative rho (up, down):  0.114E-01 0.123E-01

     total cpu time spent up to now is    663.99 secs

     total energy              =   -5390.19979643 Ry
     Harris-Foulkes estimate   =   -5390.20399733 Ry
     estimated scf accuracy    <       0.08792725 Ry

     total magnetization       =     0.00 Bohr mag/cell
     absolute magnetization    =     2.68 Bohr mag/cell

     iteration # 10     ecut=    30.00 Ry     beta=0.30
     Davidson diagonalization with overlap
     ethr =  1.31E-05,  avg # of iterations =  7.8

     negative rho (up, down):  0.116E-01 0.122E-01

     total cpu time spent up to now is    761.87 secs

     total energy              =   -5390.20618611 Ry
     Harris-Foulkes estimate   =   -5390.20879125 Ry
     estimated scf accuracy    <       0.05276279 Ry

     total magnetization       =     0.00 Bohr mag/cell
     absolute magnetization    =     1.87 Bohr mag/cell

     iteration # 11     ecut=    30.00 Ry     beta=0.30
     Davidson diagonalization with overlap
     ethr =  7.85E-06,  avg # of iterations =  2.1

     negative rho (up, down):  0.118E-01 0.121E-01

     total cpu time spent up to now is    819.98 secs

     total energy              =   -5390.20546958 Ry
     Harris-Foulkes estimate   =   -5390.20869402 Ry
     estimated scf accuracy    <       0.02557303 Ry

     total magnetization       =     0.00 Bohr mag/cell
     absolute magnetization    =     1.39 Bohr mag/cell

     iteration # 12     ecut=    30.00 Ry     beta=0.30
     Davidson diagonalization with overlap
     ethr =  3.81E-06,  avg # of iterations =  6.4

     negative rho (up, down):  0.118E-01 0.120E-01

     total cpu time spent up to now is    908.39 secs

     total energy              =   -5390.20662148 Ry
     Harris-Foulkes estimate   =   -5390.20734024 Ry
     estimated scf accuracy    <       0.00877420 Ry

     total magnetization       =     0.00 Bohr mag/cell
     absolute magnetization    =     0.85 Bohr mag/cell

     iteration # 13     ecut=    30.00 Ry     beta=0.30
     Davidson diagonalization with overlap
     ethr =  1.31E-06,  avg # of iterations =  3.8

     negative rho (up, down):  0.119E-01 0.120E-01

     total cpu time spent up to now is    976.79 secs

     total energy              =   -5390.20648851 Ry
     Harris-Foulkes estimate   =   -5390.20730246 Ry
     estimated scf accuracy    <       0.00375840 Ry

     total magnetization       =     0.00 Bohr mag/cell
     absolute magnetization    =     0.60 Bohr mag/cell

     iteration # 14     ecut=    30.00 Ry     beta=0.30
     Davidson diagonalization with overlap
     ethr =  5.59E-07,  avg # of iterations =  6.9

     negative rho (up, down):  0.119E-01 0.120E-01

     total cpu time spent up to now is   1072.98 secs

     total energy              =   -5390.20707529 Ry
     Harris-Foulkes estimate   =   -5390.20716419 Ry
     estimated scf accuracy    <       0.00104655 Ry

     total magnetization       =     0.00 Bohr mag/cell
     absolute magnetization    =     0.27 Bohr mag/cell

     iteration # 15     ecut=    30.00 Ry     beta=0.30
     Davidson diagonalization with overlap
     ethr =  1.56E-07,  avg # of iterations =  2.1

     negative rho (up, down):  0.119E-01 0.119E-01

     total cpu time spent up to now is   1131.84 secs

     total energy              =   -5390.20709579 Ry
     Harris-Foulkes estimate   =   -5390.20714292 Ry
     estimated scf accuracy    <       0.00042853 Ry

[...]
     0.6404   0.6484   0.6892   0.7049   0.7240   0.7332   0.7655   0.7684
     0.8012   0.9486   1.0016   1.0589   1.1050   1.1601   1.2068   1.2619
     1.2702   1.2838   1.3038   1.3162   1.3346   1.3824   1.3909   1.3943
     1.4193   1.4796   1.4851   1.5002   1.5130   1.5131   1.5255   1.5633
     1.5635   1.5754   1.5907   1.6242   1.6250   1.6525   1.6596   1.6673
     1.6801   1.6959   1.7167   1.8998   1.9731   1.9805   2.0725   2.1345
     2.1587   2.1962   2.2018   2.2043   2.2632   2.2940   2.2993   2.3441
     2.3571   2.3585   2.3639   2.3838   2.4202   2.4276   2.4457   2.4531
     2.4654   2.4766   2.4938   2.5099   2.5194   2.5318   2.5328   2.5586
     2.5668   2.6028   2.6320   2.6334   2.6829   2.7009   2.7102   2.7311
     2.7559   2.7693   2.7992   2.8197   2.8360   2.8374   2.8818   2.9151
     2.9605   2.9894   2.9913   2.9972   3.0037   3.0310   3.0444   3.0910
     3.1012   3.1327   3.1596   3.2116   3.2162   3.2253   3.2770   3.3755
     3.3867   3.4276   3.4717   3.5503   3.5631   3.6057   3.6151   3.6437
     3.6942   3.7071   3.7143   3.7914   3.8029   3.8127   3.8458   3.8578
     3.8761   3.8973   3.9075   3.9542   3.9801   4.0159   4.0379   4.0803
     4.0986   4.1821   4.2172   4.2275   4.2832   4.3068   4.3846   4.3998
     5.5992   5.9692   5.9703   6.5463   6.5860   6.6753   6.7528   6.8027
     6.8189   6.8411   6.8554   6.9042   7.0724   7.0924   7.1042   7.1283
     7.1774   7.4641   7.4973   7.5749   7.5995   7.6030   7.6326   7.6356
     7.6660   7.7095   7.7143   7.7487   7.7672   7.8110   7.8223   7.8413
     7.8447   7.8730   7.8766   7.8802   7.8874   7.9297   7.9340   7.9381
     7.9494   7.9653   7.9660   8.0062   8.0385   8.0449   8.0824   8.0933
     8.1116   8.1183   8.1260   8.1265   8.1808   8.1945   8.2102   8.2311
     8.2576   8.2659   8.2750   8.3161   8.3205   8.3534   8.3696   8.4388
     8.4561   8.4736   8.4944

          k =-0.5000-0.5390-0.6582 ( 20080 PWs)   bands (ev):

   -61.7458 -60.1792 -60.0386 -60.0371 -60.0263 -60.0251 -59.8787 -59.8540
   -59.8532 -59.8462 -59.8452 -59.8360 -59.7864 -59.7851 -59.7698 -59.7475
   -59.7405 -59.7386 -59.6904 -59.6893 -59.6830 -59.6743 -59.6724 -59.6351
   -36.0459 -35.4232 -35.4060 -34.1456 -34.1040 -34.0149 -33.9999 -33.9995
   -33.9828 -33.9824 -33.9590 -33.9526 -33.9337 -33.9297 -33.9113 -33.9031
   -33.8790 -33.8770 -33.8621 -33.8058 -33.8042 -33.8002 -33.7995 -33.7899
   -33.7867 -33.7757 -33.7732 -33.7698 -33.7583 -33.7561 -33.7440 -33.7409
   -33.7405 -33.7191 -33.7160 -33.7149 -33.7129 -33.7082 -33.6991 -33.6921
   -33.6914 -33.6822 -33.6813 -33.6770 -33.6761 -33.6661 -33.6589 -33.6556
   -33.6448 -33.6432 -33.6402 -33.6380 -33.6312 -33.6272 -33.6212 -33.6150
   -33.6118 -33.5974 -33.5959 -33.5936 -33.5787 -33.5734 -33.5689 -33.5606
   -33.5379 -33.5339 -33.5332 -33.5226 -33.5045 -33.5043 -33.4824 -33.4708
   -16.4533 -13.7506 -13.4389 -13.3085 -13.1241 -13.1099 -13.0396 -13.0040
   -12.9855 -12.9625 -12.7843 -12.7712 -12.4433 -12.3710 -12.2893 -12.2786
   -12.2760 -12.2583 -12.1952 -12.1471 -12.1375 -12.1172 -12.1163 -12.1150
   -12.0694 -12.0529 -12.0368 -12.0250 -12.0134 -11.9718 -11.9586 -11.9509
   -11.9332 -11.9133 -11.8939 -11.8892 -11.8266 -11.8017 -11.8014 -11.7898
   -11.7567 -11.7448 -11.6498 -11.6380 -11.6161 -11.6004 -11.5921 -11.5841
   -11.5710 -11.5575 -11.5104 -11.4989 -11.4923 -11.4658 -11.4339 -11.4332
   -11.4285 -11.4120 -11.3867 -11.3683  -2.6189  -1.9176  -1.8934  -0.9456
    -0.9115  -0.8114  -0.5377  -0.5148  -0.4514  -0.3867  -0.3519  -0.3134
    -0.2825  -0.2478  -0.2352  -0.2291  -0.2070  -0.1732  -0.1608  -0.1493
    -0.0782  -0.0321  -0.0196  -0.0122   0.0328   0.0794   0.0988   0.1185
     0.1267   0.1448   0.1916   0.2552   0.2864   0.3177   0.3393   0.4366
     0.5002   0.5125   0.5199   0.6047   0.6965   0.7081   0.7519   0.7650
     0.7874   0.7943   0.8119   0.8411   0.8647   0.8831   0.9098   0.9285
     0.9293   0.9485   0.9637   0.9849   1.0265   1.0398   1.0689   1.0815
     1.1022   1.1188   1.1382   1.1404   1.1720   1.1928   1.1973   1.2215
     1.2324   1.2774   1.3276   1.3341   1.3641   1.4029   1.4210   1.4526
     1.4729   1.4935   1.4970   1.6577   1.6735   1.6829   1.7244   1.7277
     1.7544   1.7927   1.8085   1.8091   1.8250   1.8708   1.8988   1.9262
     1.9460   1.9476   2.0110   2.1196   2.1304   2.2012   2.2542   2.2574
     2.2673   2.2802   2.3068   2.3741   2.4027   2.4213   2.4264   2.4747
     2.4838   2.5043   2.5176   2.5249   2.5733   2.5746   2.5842   2.6432
     2.6439   2.6470   2.7121   2.7152   2.7303   2.7581   2.7606   2.7827
     2.8019   2.8161   2.8206   2.8797   2.8801   2.8916   2.9233   2.9407
     2.9565   2.9682   3.0655   3.0713   3.0896   3.1453   3.1563   3.1859
     3.2005   3.2162   3.2402   3.2720   3.2758   3.3438   3.4726   3.4984
     3.5326   3.5449   3.5863   3.5962   3.6185   3.6297   3.6483   3.6663
     3.6871   3.7070   3.7157   3.7625   3.8067   3.8078   3.8305   3.8541
     3.8666   3.9032   3.9038   3.9283   3.9644   3.9769   3.9846   4.0170
     4.0365   4.0371   4.0491   4.0955   4.1051   4.1149   4.1601   4.1671
     5.6028   5.9737   5.9810   6.5545   6.5946   6.6865   6.7580   6.8053
     6.8268   6.8435   6.8574   6.9030   7.0722   7.0924   7.1300   7.1775
     7.2402   7.4942   7.5128   7.5676   7.6011   7.6666   7.6734   7.6928
     7.7059   7.7242   7.7679   7.7764   7.8044   7.8333   7.8442   7.8567
     7.8690   7.8836   7.8852   7.8943   7.8979   7.9128   7.9220   7.9281
     7.9294   7.9465   7.9625   8.0097   8.0576   8.0583   8.0891   8.0959
     8.1059   8.1094   8.1132   8.1203   8.2092   8.2116   8.2535   8.2632
     8.2729   8.2735   8.3077   8.3140   8.3349   8.3500   8.3600   8.4454
     8.4535   8.4753   8.5147

     the Fermi energy is     4.9945 ev

!    total energy              =   -5390.20714860 Ry
     Harris-Foulkes estimate   =   -5390.20714860 Ry
     estimated scf accuracy    <          8.5E-09 Ry

     The total energy is the sum of the following terms:

     one-electron contribution =   -3527.70003175 Ry
     hartree contribution      =    1992.58808251 Ry
     xc contribution           =    -854.65433644 Ry
     ewald contribution        =   -3007.07106856 Ry
     Hubbard energy            =       6.63020564 Ry
     smearing contrib. (-TS)   =      -0.00000000 Ry

     total magnetization       =    -0.00 Bohr mag/cell
     absolute magnetization    =     0.00 Bohr mag/cell

     convergence has been achieved in  27 iterations
 forces --- starting time for forces:
     forces       :      0.00s CPU      0.00s WALL (       1 calls)

     Forces acting on atoms (Ry/au):

 forces --- nonlocal contribution:
     forces       :      4.86s CPU      4.87s WALL (       2 calls)
 forces --- local contribution:
     forces       :      4.87s CPU      4.89s WALL (       3 calls)

     negative rho (up, down):  0.119E-01 0.119E-01
 forces --- NLCC contribution:
     forces       :      5.01s CPU      5.03s WALL (       4 calls)
 forces --- entering force_hub:
     forces       :      5.01s CPU      5.03s WALL (       5 calls)
           1  forces --- i/o, init_us_2, calbec, s_psi:
     forces       :      5.13s CPU      5.16s WALL (       6 calls)
           1  forces --- dn/dtau:
     forces       :     63.47s CPU     63.54s WALL (       7 calls)
           2  forces --- i/o, init_us_2, calbec, s_psi:
     forces       :     63.59s CPU     63.66s WALL (       8 calls)
           2  forces --- dn/dtau:
     forces       :    121.87s CPU    121.98s WALL (       9 calls)
           3  forces --- i/o, init_us_2, calbec, s_psi:
     forces       :    121.99s CPU    122.11s WALL (      10 calls)
           3  forces --- dn/dtau:
     forces       :    180.39s CPU    180.55s WALL (      11 calls)
           4  forces --- i/o, init_us_2, calbec, s_psi:
     forces       :    180.50s CPU    180.67s WALL (      12 calls)
           4  forces --- dn/dtau:
     forces       :    237.24s CPU    237.46s WALL (      13 calls)
           5  forces --- i/o, init_us_2, calbec, s_psi:
     forces       :    237.36s CPU    237.58s WALL (      14 calls)
           5  forces --- dn/dtau:
     forces       :    292.59s CPU    292.88s WALL (      15 calls)
           6  forces --- i/o, init_us_2, calbec, s_psi:
     forces       :    292.70s CPU    293.00s WALL (      16 calls)
           6  forces --- dn/dtau:
     forces       :    347.94s CPU    348.25s WALL (      17 calls)
           7  forces --- i/o, init_us_2, calbec, s_psi:
     forces       :    348.06s CPU    348.37s WALL (      18 calls)
           7  forces --- dn/dtau:
     forces       :    403.47s CPU    403.80s WALL (      19 calls)
           8  forces --- i/o, init_us_2, calbec, s_psi:
     forces       :    403.59s CPU    403.92s WALL (      20 calls)
           8  forces --- dn/dtau:
     forces       :    458.63s CPU    458.98s WALL (      21 calls)
           9  forces --- i/o, init_us_2, calbec, s_psi:
     forces       :    458.74s CPU    459.10s WALL (      22 calls)
           9  forces --- dn/dtau:
     forces       :    513.80s CPU    514.18s WALL (      23 calls)
          10  forces --- i/o, init_us_2, calbec, s_psi:
     forces       :    513.92s CPU    514.30s WALL (      24 calls)
          10  forces --- dn/dtau:
     forces       :    569.04s CPU    569.43s WALL (      25 calls)
          11  forces --- i/o, init_us_2, calbec, s_psi:
     forces       :    569.16s CPU    569.55s WALL (      26 calls)
          11  forces --- dn/dtau:
     forces       :    624.24s CPU    624.66s WALL (      27 calls)
          12  forces --- i/o, init_us_2, calbec, s_psi:
     forces       :    624.36s CPU    624.78s WALL (      28 calls)
          12  forces --- dn/dtau:
     forces       :    679.05s CPU    679.47s WALL (      29 calls)
          13  forces --- i/o, init_us_2, calbec, s_psi:
     forces       :    679.17s CPU    679.60s WALL (      30 calls)
          13  forces --- dn/dtau:
     forces       :    734.03s CPU    734.48s WALL (      31 calls)
          14  forces --- i/o, init_us_2, calbec, s_psi:
     forces       :    734.15s CPU    734.60s WALL (      32 calls)
          14  forces --- dn/dtau:
     forces       :    789.12s CPU    789.61s WALL (      33 calls)
          15  forces --- i/o, init_us_2, calbec, s_psi:
     forces       :    789.24s CPU    789.73s WALL (      34 calls)
          15  forces --- dn/dtau:
     forces       :    844.05s CPU    844.56s WALL (      35 calls)
          16  forces --- i/o, init_us_2, calbec, s_psi:
     forces       :    844.17s CPU    844.68s WALL (      36 calls)
          16  forces --- dn/dtau:
     forces       :    898.84s CPU    899.36s WALL (      37 calls)
 forces --- Hubbard contribution:
     forces       :    898.84s CPU    899.36s WALL (      38 calls)
 forces --- ionic contribution:
     forces       :    898.85s CPU    899.38s WALL (      39 calls)
 forces --- SCF contribution:
     forces       :    898.99s CPU    899.52s WALL (      40 calls)
     atom   1 type  2   force =     0.08268230    0.00000000   -0.01904889
     atom   2 type  2   force =     0.01774422    0.00000000   -0.01277792
     atom   3 type  2   force =     0.01594280    0.01151886   -0.01719364
     atom   4 type  2   force =     0.00839850    0.00402818   -0.01335101
     atom   5 type  2   force =     0.01594280   -0.01151886   -0.01719364
     atom   6 type  2   force =     0.00839850   -0.00402818   -0.01335101
     atom   7 type  2   force =    -0.00718219    0.00340709    0.01215693
     atom   8 type  2   force =    -0.01015494    0.00869074    0.01846281
     atom   9 type  2   force =    -0.00479461    0.00000000    0.01316181
     atom  10 type  2   force =    -0.00520580    0.00000000    0.01682834
     atom  11 type  2   force =    -0.00718219   -0.00340709    0.01215693
     atom  12 type  2   force =    -0.01015494   -0.00869074    0.01846281
     atom  13 type  2   force =    -0.00657635    0.00781934    0.00275881
     atom  14 type  2   force =    -0.03336355    0.02901522    0.02000391
     atom  15 type  2   force =    -0.00186771    0.00000000    0.01152203
     atom  16 type  2   force =    -0.00819160    0.00000000    0.01667825
     atom  17 type  2   force =    -0.00657635   -0.00781934    0.00275881
     atom  18 type  2   force =    -0.03336355   -0.02901522    0.02000391
     atom  19 type  2   force =     0.00669355    0.00000000    0.29241603
     atom  20 type  2   force =    -0.00401635    0.00000000   -0.02326936
     atom  21 type  2   force =     0.00907883    0.04308774   -0.01492609
     atom  22 type  2   force =    -0.00027303    0.00819620   -0.01157360
     atom  23 type  2   force =     0.00907883   -0.04308774   -0.01492609
     atom  24 type  2   force =    -0.00027303   -0.00819620   -0.01157360
     atom  25 type  1   force =    -0.01208219   -0.01631157    0.00032284
     atom  26 type  1   force =    -0.00545229   -0.00466183    0.00279868
     atom  27 type  1   force =    -0.00779039    0.00000000    0.00019823
     atom  28 type  1   force =    -0.00525936    0.00000000    0.00188915
     atom  29 type  1   force =    -0.01208219    0.01631157    0.00032284
     atom  30 type  1   force =    -0.00545229    0.00466183    0.00279868
     atom  31 type  1   force =     0.00159559    0.00000000   -0.00304191
     atom  32 type  1   force =    -0.00580412    0.00000000   -0.00717266
     atom  33 type  1   force =     0.00361414   -0.00290513   -0.00222645
     atom  34 type  1   force =     0.00295664   -0.00646975   -0.00198679
     atom  35 type  1   force =     0.00361414    0.00290513   -0.00222645
     atom  36 type  1   force =     0.00295664    0.00646975   -0.00198679
     atom  37 type  1   force =     0.00159972    0.00000000   -0.00067280
     atom  38 type  1   force =     0.03621764    0.00000000   -0.01693034
     atom  39 type  1   force =    -0.00285948   -0.00532015   -0.00189824
     atom  40 type  1   force =     0.00199943   -0.01578134   -0.00178645
     atom  41 type  1   force =    -0.00285948    0.00532015   -0.00189824
     atom  42 type  1   force =     0.00199943    0.01578134   -0.00178645
     atom  43 type  1   force =     0.01922314   -0.07668456   -0.01231154
     atom  44 type  1   force =     0.00553641   -0.00986823    0.00610654
     atom  45 type  1   force =     0.01001722    0.00000000   -0.00302627
     atom  46 type  1   force =     0.00528009    0.00000000    0.00179297
     atom  47 type  1   force =     0.01922314    0.07668456   -0.01231154
     atom  48 type  1   force =     0.00553641    0.00986823    0.00610654
     atom  49 type  3   force =     0.00857461    0.00000000   -0.22359534
     atom  50 type  1   force =     0.00031011    0.00000000   -0.01280204
     atom  51 type  1   force =    -0.00002411   -0.00321523    0.00569477
     atom  52 type  1   force =    -0.00058297   -0.00168065   -0.00405081
     atom  53 type  1   force =    -0.00002411    0.00321523    0.00569477
     atom  54 type  1   force =    -0.00058297    0.00168065   -0.00405081
     atom  55 type  1   force =     0.00366682   -0.00271493    0.00904798
     atom  56 type  1   force =     0.00223165   -0.00197096   -0.00847310
     atom  57 type  1   force =     0.00092037    0.00000000    0.00184511
     atom  58 type  1   force =     0.00060358    0.00000000   -0.00547965
     atom  59 type  1   force =     0.00366682    0.00271493    0.00904798
     atom  60 type  1   force =     0.00223165    0.00197096   -0.00847310
     atom  61 type  1   force =    -0.00013295   -0.00060657    0.00166150
     atom  62 type  1   force =     0.00073771   -0.00054496   -0.00589561
     atom  63 type  1   force =    -0.00010843    0.00000000    0.00041377
     atom  64 type  1   force =     0.00024756    0.00000000   -0.00446649
     atom  65 type  1   force =    -0.00013295    0.00060657    0.00166150
     atom  66 type  1   force =     0.00073771    0.00054496   -0.00589561
     atom  67 type  1   force =     0.01959189   -0.00336030   -0.00612150
     atom  68 type  1   force =     0.00849388   -0.00068863   -0.00813320
     atom  69 type  1   force =     0.00852621    0.00000000   -0.00704071
     atom  70 type  1   force =     0.00443252    0.00000000   -0.00824330
     atom  71 type  1   force =     0.01959189    0.00336030   -0.00612150
     atom  72 type  1   force =     0.00849388    0.00068863   -0.00813320
     atom  73 type  1   force =    -0.01353806    0.00000000    0.01466340
     atom  74 type  1   force =    -0.11640066    0.00000000   -0.00714922
     atom  75 type  1   force =    -0.00598159   -0.00112175    0.00915958
     atom  76 type  1   force =    -0.01776144   -0.00424137    0.00760264
     atom  77 type  1   force =    -0.00598159    0.00112175    0.00915958
     atom  78 type  1   force =    -0.01776144    0.00424137    0.00760264
     atom  79 type  1   force =    -0.00515557    0.00000000    0.00899709
     atom  80 type  1   force =    -0.00245658    0.00000000   -0.00465701
     atom  81 type  1   force =    -0.00103000   -0.00097776    0.00482800
     atom  82 type  1   force =    -0.00044275   -0.00059682   -0.00119308
     atom  83 type  1   force =    -0.00103000    0.00097776    0.00482800
     atom  84 type  1   force =    -0.00044275    0.00059682   -0.00119308

     Total force =     0.438149     Total SCF correction =     0.000398


     entering subroutine stress ...


     negative rho (up, down):  0.119E-01 0.119E-01
          total   stress  (Ry/bohr**3)                   (kbar)     P=   21.69
   0.00018725   0.00000000  -0.00003401         27.55      0.00     -5.00
   0.00000000   0.00015255   0.00000000          0.00     22.44      0.00
  -0.00003401   0.00000000   0.00010247         -5.00      0.00     15.07


     Writing output data file v2o5.O49-FCH.save
 
     init_run     :     25.67s CPU     26.67s WALL (       1 calls)
     electrons    :   1805.87s CPU   1825.38s WALL (       1 calls)
     forces       :    898.99s CPU    899.52s WALL (      41 calls)
     stress       :   1102.36s CPU   1103.43s WALL (       1 calls)

     Called by init_run:
     wfcinit      :     22.98s CPU     23.40s WALL (       1 calls)
     potinit      :      0.25s CPU      0.26s WALL (       1 calls)

     Called by electrons:
     c_bands      :   1520.52s CPU   1535.91s WALL (      27 calls)
     sum_band     :    249.67s CPU    251.69s WALL (      27 calls)
     v_of_rho     :      1.94s CPU      1.95s WALL (      28 calls)
     newd         :     28.77s CPU     28.78s WALL (      28 calls)
     mix_rho      :      2.30s CPU      2.31s WALL (      27 calls)

     Called by c_bands:
     init_us_2    :      2.07s CPU      2.57s WALL (    1088 calls)
     cegterg      :   1511.25s CPU   1524.10s WALL (     432 calls)

     Called by *egterg:
     h_psi        :    841.09s CPU    843.76s WALL (    1861 calls)
     s_psi        :     42.99s CPU     43.01s WALL (    2037 calls)
     g_psi        :      0.53s CPU      0.53s WALL (    1413 calls)
     cdiaghg      :    538.43s CPU    548.18s WALL (    1845 calls)

     Called by h_psi:
     add_vuspsi   :     35.52s CPU     35.63s WALL (    1861 calls)

     General routines
     calbec       :    121.78s CPU    122.17s WALL (    4666 calls)
     fft          :      3.06s CPU      3.08s WALL (     902 calls)
     ffts         :      1.67s CPU      1.69s WALL (    1536 calls)
     fftw         :    869.39s CPU    872.31s WALL (  920242 calls)
     interpolate  :      0.46s CPU      0.48s WALL (     110 calls)
     davcio       :      0.51s CPU      4.31s WALL (    3184 calls)
 
     Parallel routines
     fft_scatter  :    733.46s CPU    735.90s WALL (  922680 calls)
 
     PWSCF        :     1h 4m CPU        1h 4m WALL

 
   This run was terminated on:  15:32: 3   6Sep2018            

=------------------------------------------------------------------------------=
   JOB DONE.
=------------------------------------------------------------------------------=
