
     Program PWSCF v.4.3        starts on  4Sep2018 at 18:20:42 

     This program is part of the open-source Quantum ESPRESSO suite
     for quantum simulation of materials; please cite
         "P. Giannozzi et al., J. Phys.:Condens. Matter 21 395502 (2009);
          URL http://www.quantum-espresso.org", 
     in publications or presentations arising from this work. More details at
     http://www.quantum-espresso.org/wiki/index.php/Citing_Quantum-ESPRESSO

     Parallel version (MPI), running on     1 processors

     Current dimensions of program PWSCF are:
     Max number of different atomic species (ntypx) = **
     Max number of k-points (npk) =  40000
     Max angular momentum in pseudopotentials (lmaxx) =  3
     Waiting for input...

     Subspace diagonalization in iterative solution of the eigenvalue problem:
     a serial algorithm will be used

 
   Stick Mesh
   ----------
   nst =  6657,  nstw =   749, nsts =  2669
               n.st   n.stw   n.sts    n.g    n.gw   n.gs
   min        6657     749    2669  405123   15331  102397
   max        6657     749    2669  405123   15331  102397
       6657     749    2669  405123   15331  102397
 


     bravais-lattice index     =           14
     lattice parameter (a_0)   =      16.7090  a.u.
     unit-cell volume          =    4616.9515 (a.u.)^3
     number of atoms/cell      =            1
     number of atomic types    =            1
     number of electrons       =         6.00
     number of Kohn-Sham states=            7
     kinetic-energy cutoff     =      30.0000  Ry
     charge density cutoff     =     300.0000  Ry
     convergence threshold     =      1.0E-08
     mixing beta               =       0.1000
     number of iterations used =            8  local-TF  mixing
     Exchange-correlation      =  SLA  PW   PBE  PBE (1434)
     EXX-fraction              =        0.00

     celldm(1)=  16.708958  celldm(2)=   1.000000  celldm(3)=   0.989708
     celldm(4)=   0.000000  celldm(5)=   0.000000  celldm(6)=   0.000000

     crystal axes: (cart. coord. in units of a_0)
               a(1) = (   1.000000   0.000000   0.000000 )  
               a(2) = (   0.000000   1.000000   0.000000 )  
               a(3) = (   0.000000   0.000000   0.989708 )  

     reciprocal axes: (cart. coord. in units 2 pi/a_0)
               b(1) = (  1.000000  0.000000  0.000000 )  
               b(2) = (  0.000000  1.000000  0.000000 )  
               b(3) = (  0.000000  0.000000  1.010399 )  


     PseudoPot. # 1 for O  read from file O.pbe-van_bm.UPF
     MD5 check sum: ca2828d9fb1f294809e918903b7648d1
     Pseudo is Ultrasoft, Zval =  6.0
     Generated by new atomic code, or converted to UPF format
     Using radial grid of  737 points,  4 beta functions with: 
                l(1) =   0
                l(2) =   0
                l(3) =   1
                l(4) =   1
     Q(r) pseudized with  8 coefficients,  rinner =    0.800   0.800   0.800


     atomic species   valence    mass     pseudopotential
        O              6.00    15.99900     O ( 1.00)

     16 Sym.Ops. (with inversion)


   Cartesian axes

     site n.     atom                  positions (a_0 units)
         1           O   tau(  1) = (   0.0000000   0.0000000   0.0000000  )

     number of k points=     6  Fermi-Dirac smearing, width (Ry)=  0.0019
                       cart. coord. in units 2pi/a_0
        k(    1) = (   0.0000000   0.0000000   0.0000000), wk =   0.2500000
        k(    2) = (   0.0000000   0.0000000  -0.5051994), wk =   0.2500000
        k(    3) = (   0.0000000  -0.5000000   0.0000000), wk =   0.5000000
        k(    4) = (   0.0000000  -0.5000000  -0.5051994), wk =   0.5000000
        k(    5) = (  -0.5000000  -0.5000000   0.0000000), wk =   0.2500000
        k(    6) = (  -0.5000000  -0.5000000  -0.5051994), wk =   0.2500000

     G cutoff = 2121.5842  ( 405123 G-vectors)     FFT grid: ( 96, 96, 96)
     G cutoff =  848.6337  ( 102397 G-vectors)  smooth grid: ( 60, 60, 60)

     Largest allocated arrays     est. size (Mb)     dimensions
        Kohn-Sham Wavefunctions         1.38 Mb     (  12877,   7)
        NL pseudopotentials             1.57 Mb     (  12877,   8)
        Each V/rho on FFT grid         13.50 Mb     ( 884736)
        Each G-vector array             3.09 Mb     ( 405123)
        G-vector shells                 0.16 Mb     (  20763)
     Largest temporary arrays     est. size (Mb)     dimensions
        Auxiliary wavefunctions         5.50 Mb     (  12877,  28)
        Each subspace H/S matrix        0.01 Mb     (     28,  28)
        Each <psi_i|beta_j> matrix      0.00 Mb     (      8,   7)
        Arrays for rho mixing         108.00 Mb     ( 884736,   8)

     Initial potential from superposition of free atoms
     Check: negative starting charge=   -0.009205

     starting charge    6.00000, renormalised to    6.00000

     negative rho (up, down):  0.921E-02 0.000E+00
     Starting wfc are    4 atomic +    3 random wfc

     total cpu time spent up to now is      2.44 secs

     per-process dynamical memory:   214.4 Mb

     Self-consistent Calculation

     iteration #  1     ecut=    30.00 Ry     beta=0.10
     Davidson diagonalization with overlap
     ethr =  1.00E-02,  avg # of iterations =  6.7

     Threshold (ethr) on eigenvalues was too large:
     Diagonalizing with lowered threshold

     Davidson diagonalization with overlap
     c_bands:  1 eigenvalues not converged
     c_bands:  1 eigenvalues not converged
     ethr =  3.64E-06,  avg # of iterations = 16.8

     negative rho (up, down):  0.686E-02 0.000E+00

     total cpu time spent up to now is     12.45 secs

     total energy              =     -31.54440874 Ry
     Harris-Foulkes estimate   =     -31.54421163 Ry
     estimated scf accuracy    <       0.00046411 Ry

     iteration #  2     ecut=    30.00 Ry     beta=0.10
     Davidson diagonalization with overlap
     ethr =  7.74E-06,  avg # of iterations =  1.0

     negative rho (up, down):  0.193E-01 0.000E+00

     total cpu time spent up to now is     17.15 secs

     total energy              =     -31.54449569 Ry
     Harris-Foulkes estimate   =     -31.54441009 Ry
     estimated scf accuracy    <       0.00038344 Ry

     iteration #  3     ecut=    30.00 Ry     beta=0.10
     Davidson diagonalization with overlap
     ethr =  6.39E-06,  avg # of iterations =  3.0

     negative rho (up, down):  0.167E-01 0.000E+00

     total cpu time spent up to now is     24.42 secs

     total energy              =     -31.54443341 Ry
     Harris-Foulkes estimate   =     -31.54454892 Ry
     estimated scf accuracy    <       0.00001709 Ry

     iteration #  4     ecut=    30.00 Ry     beta=0.10
     Davidson diagonalization with overlap
     ethr =  2.85E-07,  avg # of iterations =  2.3

     negative rho (up, down):  0.136E-01 0.000E+00

     total cpu time spent up to now is     34.42 secs

     total energy              =     -31.54435356 Ry
     Harris-Foulkes estimate   =     -31.54443410 Ry
     estimated scf accuracy    <       0.00000794 Ry

     iteration #  5     ecut=    30.00 Ry     beta=0.10
     Davidson diagonalization with overlap
     ethr =  1.32E-07,  avg # of iterations =  1.8

     negative rho (up, down):  0.128E-01 0.000E+00

     total cpu time spent up to now is     39.78 secs

     total energy              =     -31.54435994 Ry
     Harris-Foulkes estimate   =     -31.54435416 Ry
     estimated scf accuracy    <       0.00001326 Ry

     iteration #  6     ecut=    30.00 Ry     beta=0.10
     Davidson diagonalization with overlap
     ethr =  1.32E-07,  avg # of iterations =  1.0

     negative rho (up, down):  0.108E-01 0.000E+00

     total cpu time spent up to now is     44.17 secs

     total energy              =     -31.54434196 Ry
     Harris-Foulkes estimate   =     -31.54436002 Ry
     estimated scf accuracy    <       0.00000870 Ry

     iteration #  7     ecut=    30.00 Ry     beta=0.10
     Davidson diagonalization with overlap
     ethr =  1.32E-07,  avg # of iterations =  2.7

     negative rho (up, down):  0.854E-02 0.000E+00

     total cpu time spent up to now is     48.42 secs

     total energy              =     -31.54423059 Ry
     Harris-Foulkes estimate   =     -31.54434231 Ry
     estimated scf accuracy    <       0.00000180 Ry

     iteration #  8     ecut=    30.00 Ry     beta=0.10
     Davidson diagonalization with overlap
     ethr =  3.01E-08,  avg # of iterations =  4.2

     negative rho (up, down):  0.902E-02 0.000E+00

     total cpu time spent up to now is     53.97 secs

     total energy              =     -31.54418142 Ry
     Harris-Foulkes estimate   =     -31.54423109 Ry
     estimated scf accuracy    <       0.00001283 Ry

     iteration #  9     ecut=    30.00 Ry     beta=0.10
     Davidson diagonalization with overlap
     ethr =  3.01E-08,  avg # of iterations =  3.0

     negative rho (up, down):  0.866E-02 0.000E+00

     total cpu time spent up to now is     58.34 secs

     total energy              =     -31.54411692 Ry
     Harris-Foulkes estimate   =     -31.54418377 Ry
     estimated scf accuracy    <       0.00000992 Ry

     iteration # 10     ecut=    30.00 Ry     beta=0.10
     Davidson diagonalization with overlap
     ethr =  3.01E-08,  avg # of iterations =  1.0

     negative rho (up, down):  0.856E-02 0.000E+00

     total cpu time spent up to now is     63.05 secs

     total energy              =     -31.54404652 Ry
     Harris-Foulkes estimate   =     -31.54411710 Ry
     estimated scf accuracy    <       0.00000111 Ry

     iteration # 11     ecut=    30.00 Ry     beta=0.10
     Davidson diagonalization with overlap
     ethr =  1.86E-08,  avg # of iterations =  1.0

     negative rho (up, down):  0.860E-02 0.000E+00

     total cpu time spent up to now is     68.14 secs

     total energy              =     -31.54397249 Ry
     Harris-Foulkes estimate   =     -31.54404658 Ry
     estimated scf accuracy    <       0.00000024 Ry

     iteration # 12     ecut=    30.00 Ry     beta=0.10
     Davidson diagonalization with overlap
     ethr =  3.92E-09,  avg # of iterations =  2.0

     negative rho (up, down):  0.874E-02 0.000E+00

     total cpu time spent up to now is     77.10 secs

     total energy              =     -31.54395450 Ry
     Harris-Foulkes estimate   =     -31.54397254 Ry
     estimated scf accuracy    <       0.00000090 Ry

     iteration # 13     ecut=    30.00 Ry     beta=0.10
     Davidson diagonalization with overlap
     ethr =  3.92E-09,  avg # of iterations =  2.0

     negative rho (up, down):  0.896E-02 0.000E+00

     total cpu time spent up to now is     81.45 secs

     total energy              =     -31.54398889 Ry
     Harris-Foulkes estimate   =     -31.54395453 Ry
     estimated scf accuracy    <       0.00000031 Ry

     iteration # 14     ecut=    30.00 Ry     beta=0.10
     Davidson diagonalization with overlap
     ethr =  3.92E-09,  avg # of iterations =  2.0

     negative rho (up, down):  0.926E-02 0.000E+00

     total cpu time spent up to now is     86.69 secs

     total energy              =     -31.54402160 Ry
     Harris-Foulkes estimate   =     -31.54398893 Ry
     estimated scf accuracy    <       0.00000002 Ry

     iteration # 15     ecut=    30.00 Ry     beta=0.10
     Davidson diagonalization with overlap
     ethr =  3.23E-10,  avg # of iterations =  3.0

     negative rho (up, down):  0.957E-02 0.000E+00

     total cpu time spent up to now is     91.82 secs

     total energy              =     -31.54403291 Ry
     Harris-Foulkes estimate   =     -31.54402165 Ry
     estimated scf accuracy    <       0.00000006 Ry

     iteration # 16     ecut=    30.00 Ry     beta=0.10
     Davidson diagonalization with overlap
     ethr =  3.23E-10,  avg # of iterations =  2.0

     negative rho (up, down):  0.989E-02 0.000E+00

     total cpu time spent up to now is     98.06 secs

     total energy              =     -31.54403110 Ry
     Harris-Foulkes estimate   =     -31.54403293 Ry
     estimated scf accuracy    <       0.00000004 Ry

     iteration # 17     ecut=    30.00 Ry     beta=0.10
     Davidson diagonalization with overlap
     ethr =  3.23E-10,  avg # of iterations =  2.0

     negative rho (up, down):  0.102E-01 0.000E+00

     total cpu time spent up to now is    103.47 secs

     total energy              =     -31.54402395 Ry
     Harris-Foulkes estimate   =     -31.54403111 Ry
     estimated scf accuracy    <       0.00000002 Ry

     iteration # 18     ecut=    30.00 Ry     beta=0.10
     Davidson diagonalization with overlap
     ethr =  3.14E-10,  avg # of iterations =  2.0

     negative rho (up, down):  0.139E-01 0.000E+00

     total cpu time spent up to now is    105.94 secs

     End of self-consistent calculation

          k = 0.0000 0.0000 0.0000 ( 12877 PWs)   bands (ev):

   -23.8968  -8.8624  -8.8624  -8.8622  -0.7794   1.1394   1.1557

          k = 0.0000 0.0000-0.5052 ( 12820 PWs)   bands (ev):

   -23.8968  -8.8623  -8.8623  -8.8623  -0.3630  -0.1870   1.5603

          k = 0.0000-0.5000 0.0000 ( 12814 PWs)   bands (ev):

   -23.8968  -8.8623  -8.8622  -8.8622  -0.3739  -0.1960   1.5499

          k = 0.0000-0.5000-0.5052 ( 12788 PWs)   bands (ev):

   -23.8968  -8.8623  -8.8622  -8.8622   0.0301   0.2466   0.2484

          k =-0.5000-0.5000 0.0000 ( 12728 PWs)   bands (ev):

   -23.8968  -8.8621  -8.8621  -8.8620   0.0190   0.2378   0.2378

          k =-0.5000-0.5000-0.5052 ( 12768 PWs)   bands (ev):

   -23.8968  -8.8623  -8.8622  -8.8622   0.4196   0.6619   0.6630

     the Fermi energy is    -8.8443 ev

!    total energy              =     -31.54399516 Ry
     Harris-Foulkes estimate   =     -31.54402396 Ry
     estimated scf accuracy    <          4.1E-09 Ry

     The total energy is the sum of the following terms:

     one-electron contribution =     -40.13288278 Ry
     hartree contribution      =      21.19664898 Ry
     xc contribution           =      -6.46656004 Ry
     ewald contribution        =      -6.13394508 Ry
     smearing contrib. (-TS)   =      -0.00725625 Ry

     convergence has been achieved in  18 iterations
 forces --- starting time for forces:
     forces       :      0.00s CPU      0.00s WALL (       1 calls)

     Forces acting on atoms (Ry/au):

 forces --- nonlocal contribution:
     forces       :      0.37s CPU      0.38s WALL (       2 calls)
 forces --- local contribution:
     forces       :      0.40s CPU      0.41s WALL (       3 calls)
 forces --- NLCC contribution:
     forces       :      0.40s CPU      0.41s WALL (       4 calls)
 forces --- Hubbard contribution:
     forces       :      0.40s CPU      0.41s WALL (       5 calls)
 forces --- ionic contribution:
     forces       :      0.41s CPU      0.42s WALL (       6 calls)
 forces --- SCF contribution:
     forces       :      0.55s CPU      0.57s WALL (       7 calls)
     atom   1 type  1   force =     0.00000000    0.00000000    0.00000000

     Total force =     0.000000     Total SCF correction =     0.000000


     entering subroutine stress ...

          total   stress  (Ry/bohr**3)                   (kbar)     P=   -0.29
  -0.00000200   0.00000000   0.00000000         -0.29      0.00      0.00
   0.00000000  -0.00000200   0.00000000          0.00     -0.29      0.00
   0.00000000   0.00000000  -0.00000197          0.00      0.00     -0.29


     Writing output data file atom.O-GS.save
 
     init_run     :      2.23s CPU      2.37s WALL (       1 calls)
     electrons    :    101.97s CPU    103.50s WALL (       1 calls)
     forces       :      0.55s CPU      0.57s WALL (       8 calls)
     stress       :      1.92s CPU      1.99s WALL (       1 calls)

     Called by init_run:
     wfcinit      :      0.60s CPU      0.63s WALL (       1 calls)
     potinit      :      0.73s CPU      0.77s WALL (       1 calls)

     Called by electrons:
     c_bands      :     23.83s CPU     24.03s WALL (      19 calls)
     sum_band     :     10.01s CPU     10.33s WALL (      19 calls)
     v_of_rho     :      9.01s CPU      9.35s WALL (      19 calls)
     newd         :      5.62s CPU      5.84s WALL (      19 calls)
     mix_rho      :     52.92s CPU     53.07s WALL (      19 calls)

     Called by c_bands:
     init_us_2    :      0.43s CPU      0.47s WALL (     246 calls)
     cegterg      :     23.21s CPU     23.31s WALL (     114 calls)

     Called by *egterg:
     h_psi        :     22.25s CPU     22.27s WALL (     477 calls)
     s_psi        :      0.13s CPU      0.13s WALL (     477 calls)
     g_psi        :      0.13s CPU      0.13s WALL (     357 calls)
     cdiaghg      :      0.06s CPU      0.08s WALL (     465 calls)

     Called by h_psi:
     add_vuspsi   :      0.13s CPU      0.13s WALL (     477 calls)

     General routines
     calbec       :      0.18s CPU      0.18s WALL (     603 calls)
     fft          :      7.05s CPU      7.23s WALL (     312 calls)
     ffts         :     28.93s CPU     28.97s WALL (    5399 calls)
     fftw         :     23.40s CPU     23.41s WALL (    5248 calls)
     interpolate  :      1.21s CPU      1.26s WALL (      38 calls)
     davcio       :      0.07s CPU      0.15s WALL (     366 calls)
 
     Parallel routines
 
     PWSCF        :  1m46.99s CPU     1m49.09s WALL

 
   This run was terminated on:  18:22:31   4Sep2018            

=------------------------------------------------------------------------------=
   JOB DONE.
=------------------------------------------------------------------------------=
