
     Program PWSCF v.4.3        starts on  4Sep2018 at 18:22:32 

     This program is part of the open-source Quantum ESPRESSO suite
     for quantum simulation of materials; please cite
         "P. Giannozzi et al., J. Phys.:Condens. Matter 21 395502 (2009);
          URL http://www.quantum-espresso.org", 
     in publications or presentations arising from this work. More details at
     http://www.quantum-espresso.org/wiki/index.php/Citing_Quantum-ESPRESSO

     Parallel version (MPI), running on     1 processors

     Current dimensions of program PWSCF are:
     Max number of different atomic species (ntypx) = **
     Max number of k-points (npk) =  40000
     Max angular momentum in pseudopotentials (lmaxx) =  3
     Waiting for input...

     Subspace diagonalization in iterative solution of the eigenvalue problem:
     a serial algorithm will be used

 
   Stick Mesh
   ----------
   nst =  6657,  nstw =   749, nsts =  2669
               n.st   n.stw   n.sts    n.g    n.gw   n.gs
   min        6657     749    2669  405123   15331  102397
   max        6657     749    2669  405123   15331  102397
       6657     749    2669  405123   15331  102397
 


     bravais-lattice index     =           14
     lattice parameter (a_0)   =      16.7090  a.u.
     unit-cell volume          =    4616.9515 (a.u.)^3
     number of atoms/cell      =            1
     number of atomic types    =            1
     number of electrons       =         7.00
     number of Kohn-Sham states=            7
     kinetic-energy cutoff     =      30.0000  Ry
     charge density cutoff     =     300.0000  Ry
     convergence threshold     =      1.0E-08
     mixing beta               =       0.1000
     number of iterations used =            8  local-TF  mixing
     Exchange-correlation      = SLA  PW   PBE  PBE (1434)
     EXX-fraction              =        0.00

     celldm(1)=  16.708958  celldm(2)=   1.000000  celldm(3)=   0.989708
     celldm(4)=   0.000000  celldm(5)=   0.000000  celldm(6)=   0.000000

     crystal axes: (cart. coord. in units of a_0)
               a(1) = (   1.000000   0.000000   0.000000 )  
               a(2) = (   0.000000   1.000000   0.000000 )  
               a(3) = (   0.000000   0.000000   0.989708 )  

     reciprocal axes: (cart. coord. in units 2 pi/a_0)
               b(1) = (  1.000000  0.000000  0.000000 )  
               b(2) = (  0.000000  1.000000  0.000000 )  
               b(3) = (  0.000000  0.000000  1.010399 )  


     PseudoPot. # 1 for ox read from file O.pbe-van-dgp-1s1.UPF
     MD5 check sum: 2083901d62884ac3a15d661bda1575b3
     Pseudo is Ultrasoft, Zval =  7.0
     Generated by new atomic code, or converted to UPF format
     Using radial grid of  737 points,  4 beta functions with: 
                l(1) =   0
                l(2) =   0
                l(3) =   1
                l(4) =   1
     Q(r) pseudized with  8 coefficients,  rinner =    0.800   0.800   0.800


     atomic species   valence    mass     pseudopotential
        OX             7.00    15.99900     ox( 1.00)

     16 Sym.Ops. (with inversion)


   Cartesian axes

     site n.     atom                  positions (a_0 units)
         1           OX  tau(  1) = (   0.0000000   0.0000000   0.0000000  )

     number of k points=     6  Fermi-Dirac smearing, width (Ry)=  0.0019
                       cart. coord. in units 2pi/a_0
        k(    1) = (   0.0000000   0.0000000   0.0000000), wk =   0.2500000
        k(    2) = (   0.0000000   0.0000000  -0.5051994), wk =   0.2500000
        k(    3) = (   0.0000000  -0.5000000   0.0000000), wk =   0.5000000
        k(    4) = (   0.0000000  -0.5000000  -0.5051994), wk =   0.5000000
        k(    5) = (  -0.5000000  -0.5000000   0.0000000), wk =   0.2500000
        k(    6) = (  -0.5000000  -0.5000000  -0.5051994), wk =   0.2500000

     G cutoff = 2121.5842  ( 405123 G-vectors)     FFT grid: ( 96, 96, 96)
     G cutoff =  848.6337  ( 102397 G-vectors)  smooth grid: ( 60, 60, 60)

     Largest allocated arrays     est. size (Mb)     dimensions
        Kohn-Sham Wavefunctions         1.38 Mb     (  12877,   7)
        NL pseudopotentials             1.57 Mb     (  12877,   8)
        Each V/rho on FFT grid         13.50 Mb     ( 884736)
        Each G-vector array             3.09 Mb     ( 405123)
        G-vector shells                 0.16 Mb     (  20763)
     Largest temporary arrays     est. size (Mb)     dimensions
        Auxiliary wavefunctions         5.50 Mb     (  12877,  28)
        Each subspace H/S matrix        0.01 Mb     (     28,  28)
        Each <psi_i|beta_j> matrix      0.00 Mb     (      8,   7)
        Arrays for rho mixing         108.00 Mb     ( 884736,   8)

     Initial potential from superposition of free atoms
     Check: negative starting charge=   -0.006933

     starting charge    6.00000, renormalised to    7.00000

     negative rho (up, down):  0.809E-02 0.000E+00
     Starting wfc are    4 atomic +    3 random wfc

     total cpu time spent up to now is      2.20 secs

     per-process dynamical memory:   214.4 Mb

     Self-consistent Calculation

     iteration #  1     ecut=    30.00 Ry     beta=0.10
     Davidson diagonalization with overlap
     ethr =  1.00E-02,  avg # of iterations =  6.8

     negative rho (up, down):  0.208E-01 0.000E+00

     total cpu time spent up to now is     11.07 secs

     total energy              =     -47.53429816 Ry
     Harris-Foulkes estimate   =     -47.60048212 Ry
     estimated scf accuracy    <       0.89687353 Ry

     iteration #  2     ecut=    30.00 Ry     beta=0.10
     Davidson diagonalization with overlap
     ethr =  1.00E-02,  avg # of iterations =  1.0

     negative rho (up, down):  0.164E+00 0.000E+00

     total cpu time spent up to now is     15.66 secs

     total energy              =     -47.17903679 Ry
     Harris-Foulkes estimate   =     -47.53672841 Ry
     estimated scf accuracy    <       0.70359801 Ry

     iteration #  3     ecut=    30.00 Ry     beta=0.10
     Davidson diagonalization with overlap
     ethr =  1.00E-02,  avg # of iterations =  2.0

     negative rho (up, down):  0.124E+00 0.000E+00

     total cpu time spent up to now is     19.73 secs

     total energy              =     -47.32981381 Ry
     Harris-Foulkes estimate   =     -47.33431429 Ry
     estimated scf accuracy    <       0.01492458 Ry

     iteration #  4     ecut=    30.00 Ry     beta=0.10
     Davidson diagonalization with overlap
     ethr =  2.13E-04,  avg # of iterations =  2.0

     negative rho (up, down):  0.105E+00 0.000E+00

     total cpu time spent up to now is     24.44 secs

     total energy              =     -47.32871737 Ry
     Harris-Foulkes estimate   =     -47.33490866 Ry
     estimated scf accuracy    <       0.02009490 Ry

     iteration #  5     ecut=    30.00 Ry     beta=0.10
     Davidson diagonalization with overlap
     ethr =  2.13E-04,  avg # of iterations =  1.0

     negative rho (up, down):  0.876E-01 0.000E+00

     total cpu time spent up to now is     29.77 secs

     total energy              =     -47.31938844 Ry
     Harris-Foulkes estimate   =     -47.32900004 Ry
     estimated scf accuracy    <       0.00996810 Ry

     iteration #  6     ecut=    30.00 Ry     beta=0.10
     Davidson diagonalization with overlap
     ethr =  1.42E-04,  avg # of iterations =  3.0

     negative rho (up, down):  0.695E-01 0.000E+00

     total cpu time spent up to now is     34.89 secs

     total energy              =     -47.33416343 Ry
     Harris-Foulkes estimate   =     -47.32575252 Ry
     estimated scf accuracy    <       0.01044689 Ry

     iteration #  7     ecut=    30.00 Ry     beta=0.10
     Davidson diagonalization with overlap
     ethr =  1.42E-04,  avg # of iterations =  2.5

     negative rho (up, down):  0.152E-01 0.000E+00

     total cpu time spent up to now is     39.98 secs

     total energy              =     -47.31834815 Ry
     Harris-Foulkes estimate   =     -47.33643913 Ry
     estimated scf accuracy    <       0.03970495 Ry

     iteration #  8     ecut=    30.00 Ry     beta=0.10
     Davidson diagonalization with overlap
     ethr =  1.42E-04,  avg # of iterations =  2.0

     negative rho (up, down):  0.129E-01 0.000E+00

     total cpu time spent up to now is     45.32 secs

     total energy              =     -47.32121948 Ry
     Harris-Foulkes estimate   =     -47.32213149 Ry
     estimated scf accuracy    <       0.00236785 Ry

     iteration #  9     ecut=    30.00 Ry     beta=0.10
     Davidson diagonalization with overlap
     ethr =  3.38E-05,  avg # of iterations =  5.7

     negative rho (up, down):  0.869E-02 0.000E+00

     total cpu time spent up to now is     50.98 secs

     total energy              =     -47.32097566 Ry
     Harris-Foulkes estimate   =     -47.32135894 Ry
     estimated scf accuracy    <       0.00057571 Ry

     iteration # 10     ecut=    30.00 Ry     beta=0.10
     Davidson diagonalization with overlap
     ethr =  8.22E-06,  avg # of iterations =  6.5

     negative rho (up, down):  0.807E-02 0.000E+00

     total cpu time spent up to now is     58.60 secs

     total energy              =     -47.32160378 Ry
     Harris-Foulkes estimate   =     -47.32171006 Ry
     estimated scf accuracy    <       0.00137653 Ry

     iteration # 11     ecut=    30.00 Ry     beta=0.10
     Davidson diagonalization with overlap
     ethr =  8.22E-06,  avg # of iterations =  1.0

     negative rho (up, down):  0.525E-02 0.000E+00

     total cpu time spent up to now is     64.15 secs

     total energy              =     -47.32103593 Ry
     Harris-Foulkes estimate   =     -47.32160687 Ry
     estimated scf accuracy    <       0.00106534 Ry

     iteration # 12     ecut=    30.00 Ry     beta=0.10
     Davidson diagonalization with overlap
     ethr =  8.22E-06,  avg # of iterations =  2.0

     negative rho (up, down):  0.460E-02 0.000E+00

     total cpu time spent up to now is     69.26 secs

     total energy              =     -47.32123001 Ry
     Harris-Foulkes estimate   =     -47.32123231 Ry
     estimated scf accuracy    <       0.00000948 Ry

     iteration # 13     ecut=    30.00 Ry     beta=0.10
     Davidson diagonalization with overlap
     ethr =  1.35E-07,  avg # of iterations =  7.0

     negative rho (up, down):  0.353E-02 0.000E+00

     total cpu time spent up to now is     74.09 secs

     total energy              =     -47.32124106 Ry
     Harris-Foulkes estimate   =     -47.32123088 Ry
     estimated scf accuracy    <       0.00000825 Ry

     iteration # 14     ecut=    30.00 Ry     beta=0.10
     Davidson diagonalization with overlap
     ethr =  1.18E-07,  avg # of iterations =  3.0

     negative rho (up, down):  0.286E-02 0.000E+00

     total cpu time spent up to now is     80.17 secs

     total energy              =     -47.32125544 Ry
     Harris-Foulkes estimate   =     -47.32124148 Ry
     estimated scf accuracy    <       0.00000080 Ry

     iteration # 15     ecut=    30.00 Ry     beta=0.10
     Davidson diagonalization with overlap
     ethr =  1.14E-08,  avg # of iterations =  2.0

     negative rho (up, down):  0.257E-02 0.000E+00

     total cpu time spent up to now is     84.54 secs

     total energy              =     -47.32125654 Ry
     Harris-Foulkes estimate   =     -47.32125586 Ry
     estimated scf accuracy    <       0.00000067 Ry

     iteration # 16     ecut=    30.00 Ry     beta=0.10
     Davidson diagonalization with overlap
     ethr =  9.51E-09,  avg # of iterations =  2.0

     negative rho (up, down):  0.249E-02 0.000E+00

     total cpu time spent up to now is     91.83 secs

     total energy              =     -47.32125481 Ry
     Harris-Foulkes estimate   =     -47.32125690 Ry
     estimated scf accuracy    <       0.00000744 Ry

     iteration # 17     ecut=    30.00 Ry     beta=0.10
     Davidson diagonalization with overlap
     ethr =  9.51E-09,  avg # of iterations =  1.0

     negative rho (up, down):  0.223E-02 0.000E+00

     total cpu time spent up to now is     97.43 secs

     total energy              =     -47.32125465 Ry
     Harris-Foulkes estimate   =     -47.32125527 Ry
     estimated scf accuracy    <       0.00000072 Ry

     iteration # 18     ecut=    30.00 Ry     beta=0.10
     Davidson diagonalization with overlap
     ethr =  9.51E-09,  avg # of iterations =  1.0

     negative rho (up, down):  0.207E-02 0.000E+00

     total cpu time spent up to now is    102.04 secs

     total energy              =     -47.32125299 Ry
     Harris-Foulkes estimate   =     -47.32125467 Ry
     estimated scf accuracy    <       0.00000003 Ry

     iteration # 19     ecut=    30.00 Ry     beta=0.10
     Davidson diagonalization with overlap
     ethr =  4.41E-10,  avg # of iterations =  1.0

     negative rho (up, down):  0.192E-02 0.000E+00

     total cpu time spent up to now is    107.08 secs

     total energy              =     -47.32125140 Ry
     Harris-Foulkes estimate   =     -47.32125300 Ry
     estimated scf accuracy    <       0.00000008 Ry

     iteration # 20     ecut=    30.00 Ry     beta=0.10
     Davidson diagonalization with overlap
     ethr =  4.41E-10,  avg # of iterations =  1.0

     negative rho (up, down):  0.180E-02 0.000E+00

     total cpu time spent up to now is    111.96 secs

     total energy              =     -47.32124969 Ry
     Harris-Foulkes estimate   =     -47.32125141 Ry
     estimated scf accuracy    <       0.00000002 Ry

     iteration # 21     ecut=    30.00 Ry     beta=0.10
     Davidson diagonalization with overlap
     ethr =  2.45E-10,  avg # of iterations =  1.7

     negative rho (up, down):  0.171E-02 0.000E+00

     total cpu time spent up to now is    116.67 secs

     total energy              =     -47.32124760 Ry
     Harris-Foulkes estimate   =     -47.32124969 Ry
     estimated scf accuracy    <       0.00000006 Ry

     iteration # 22     ecut=    30.00 Ry     beta=0.10
     Davidson diagonalization with overlap
     ethr =  2.45E-10,  avg # of iterations =  1.0

     negative rho (up, down):  0.164E-02 0.000E+00

     total cpu time spent up to now is    121.11 secs

     total energy              =     -47.32124518 Ry
     Harris-Foulkes estimate   =     -47.32124761 Ry
     estimated scf accuracy    <       0.00000016 Ry

     iteration # 23     ecut=    30.00 Ry     beta=0.10
     Davidson diagonalization with overlap
     ethr =  2.45E-10,  avg # of iterations =  1.0

     negative rho (up, down):  0.159E-02 0.000E+00

     total cpu time spent up to now is    125.83 secs

     total energy              =     -47.32124268 Ry
     Harris-Foulkes estimate   =     -47.32124518 Ry
     estimated scf accuracy    <       0.00000003 Ry

     iteration # 24     ecut=    30.00 Ry     beta=0.10
     Davidson diagonalization with overlap
     ethr =  2.45E-10,  avg # of iterations =  1.0

     negative rho (up, down):  0.156E-02 0.000E+00

     total cpu time spent up to now is    130.17 secs

     total energy              =     -47.32124046 Ry
     Harris-Foulkes estimate   =     -47.32124268 Ry
     estimated scf accuracy    <       0.00000011 Ry

     iteration # 25     ecut=    30.00 Ry     beta=0.10
     Davidson diagonalization with overlap
     ethr =  2.45E-10,  avg # of iterations =  1.0

     negative rho (up, down):  0.154E-02 0.000E+00

     total cpu time spent up to now is    135.77 secs

     total energy              =     -47.32123906 Ry
     Harris-Foulkes estimate   =     -47.32124046 Ry
     estimated scf accuracy    <       0.00000002 Ry

     iteration # 26     ecut=    30.00 Ry     beta=0.10
     Davidson diagonalization with overlap
     ethr =  2.45E-10,  avg # of iterations =  1.0

     negative rho (up, down):  0.179E-02 0.000E+00

     total cpu time spent up to now is    137.99 secs

     End of self-consistent calculation

          k = 0.0000 0.0000 0.0000 ( 12877 PWs)   bands (ev):

   -26.3982 -11.4728 -11.4728 -11.4727  -0.4600   1.3976   1.4508

          k = 0.0000 0.0000-0.5052 ( 12820 PWs)   bands (ev):

   -26.3981 -11.4727 -11.4727 -11.4727  -0.0728   0.1577   1.8094

          k = 0.0000-0.5000 0.0000 ( 12814 PWs)   bands (ev):

   -26.3981 -11.4727 -11.4727 -11.4726  -0.0833   0.1487   1.7991

          k = 0.0000-0.5000-0.5052 ( 12788 PWs)   bands (ev):

   -26.3981 -11.4726 -11.4726 -11.4726   0.2798   0.5736   0.5755

          k =-0.5000-0.5000 0.0000 ( 12728 PWs)   bands (ev):

   -26.3981 -11.4724 -11.4724 -11.4724   0.2690   0.5656   0.5656

          k =-0.5000-0.5000-0.5052 ( 12768 PWs)   bands (ev):

   -26.3981 -11.4727 -11.4725 -11.4725   0.6133   0.9607   0.9629

     the Fermi energy is   -11.4310 ev

!    total energy              =     -47.32124502 Ry
     Harris-Foulkes estimate   =     -47.32123906 Ry
     estimated scf accuracy    <          8.0E-09 Ry

     The total energy is the sum of the following terms:

     one-electron contribution =     -63.63304686 Ry
     hartree contribution      =      33.49695406 Ry
     xc contribution           =      -8.83103503 Ry
     ewald contribution        =      -8.34898080 Ry
     smearing contrib. (-TS)   =      -0.00513638 Ry

     convergence has been achieved in  26 iterations
 forces --- starting time for forces:
     forces       :      0.00s CPU      0.00s WALL (       1 calls)

     Forces acting on atoms (Ry/au):

 forces --- nonlocal contribution:
     forces       :      0.36s CPU      0.38s WALL (       2 calls)
 forces --- local contribution:
     forces       :      0.39s CPU      0.41s WALL (       3 calls)
 forces --- NLCC contribution:
     forces       :      0.39s CPU      0.41s WALL (       4 calls)
 forces --- Hubbard contribution:
     forces       :      0.39s CPU      0.41s WALL (       5 calls)
 forces --- ionic contribution:
     forces       :      0.40s CPU      0.42s WALL (       6 calls)
 forces --- SCF contribution:
     forces       :      0.55s CPU      0.57s WALL (       7 calls)
     atom   1 type  1   force =     0.00000000    0.00000000    0.00000000

     Total force =     0.000000     Total SCF correction =     0.000000


     entering subroutine stress ...

          total   stress  (Ry/bohr**3)                   (kbar)     P=   -0.41
  -0.00000281   0.00000000   0.00000000         -0.41      0.00      0.00
   0.00000000  -0.00000281   0.00000000          0.00     -0.41      0.00
   0.00000000   0.00000000  -0.00000281          0.00      0.00     -0.41


     Writing output data file atom.O-FCH.save
 
     init_run     :      2.00s CPU      2.11s WALL (       1 calls)
     electrons    :    133.64s CPU    135.79s WALL (       1 calls)
     forces       :      0.55s CPU      0.57s WALL (       8 calls)
     stress       :      1.88s CPU      1.95s WALL (       1 calls)

     Called by init_run:
     wfcinit      :      0.44s CPU      0.45s WALL (       1 calls)
     potinit      :      0.68s CPU      0.73s WALL (       1 calls)

     Called by electrons:
     c_bands      :     29.92s CPU     30.22s WALL (      26 calls)
     sum_band     :     14.11s CPU     14.52s WALL (      26 calls)
     v_of_rho     :     11.92s CPU     12.38s WALL (      27 calls)
     newd         :      8.15s CPU      8.46s WALL (      27 calls)
     mix_rho      :     68.26s CPU     68.48s WALL (      26 calls)

     Called by c_bands:
     init_us_2    :      0.57s CPU      0.63s WALL (     330 calls)
     cegterg      :     29.09s CPU     29.24s WALL (     156 calls)

     Called by *egterg:
     h_psi        :     27.78s CPU     27.80s WALL (     523 calls)
     s_psi        :      0.15s CPU      0.15s WALL (     523 calls)
     g_psi        :      0.16s CPU      0.16s WALL (     361 calls)
     cdiaghg      :      0.06s CPU      0.06s WALL (     517 calls)

     Called by h_psi:
     add_vuspsi   :      0.15s CPU      0.15s WALL (     523 calls)

     General routines
     calbec       :      0.22s CPU      0.22s WALL (     691 calls)
     fft          :      9.93s CPU     10.18s WALL (     436 calls)
     ffts         :     37.21s CPU     37.24s WALL (    6940 calls)
     fftw         :     29.81s CPU     29.83s WALL (    6668 calls)
     interpolate  :      1.73s CPU      1.79s WALL (      53 calls)
     davcio       :      0.09s CPU      0.20s WALL (     492 calls)
 
     Parallel routines
 
     PWSCF        :  2m18.31s CPU     2m20.98s WALL

 
   This run was terminated on:  18:24:53   4Sep2018            

=------------------------------------------------------------------------------=
   JOB DONE.
=------------------------------------------------------------------------------=
