
     Program PWSCF v.4.3        starts on 28Aug2018 at 22:55: 1 

     This program is part of the open-source Quantum ESPRESSO suite
     for quantum simulation of materials; please cite
         "P. Giannozzi et al., J. Phys.:Condens. Matter 21 395502 (2009);
          URL http://www.quantum-espresso.org", 
     in publications or presentations arising from this work. More details at
     http://www.quantum-espresso.org/wiki/index.php/Citing_Quantum-ESPRESSO

     Parallel version (MPI), running on    64 processors
     R & G space division:  proc/pool =   64

     Current dimensions of program PWSCF are:
     Max number of different atomic species (ntypx) = **
     Max number of k-points (npk) =  40000
     Max angular momentum in pseudopotentials (lmaxx) =  3
     Waiting for input...

     Subspace diagonalization in iterative solution of the eigenvalue problem:
     parallel, distributed-memory algorithm (size of sub-group:  5*  5 procs)

     Found symmetry operation: I + (  0.0000  0.0000  0.3333)
     This is a supercell, fractional translation are disabled
 
   Stick Mesh
   ----------
   nst =  6657,  nstw =   749, nsts =  2669
               n.st   n.stw   n.sts    n.g    n.gw   n.gs
   min         104      11      41    6328     237    1583
   max         105      12      42    6332     242    1626
       6657     749    2669  405123   15331  102397
 


     bravais-lattice index     =           14
     lattice parameter (a_0)   =      16.7090  a.u.
     unit-cell volume          =    4616.9515 (a.u.)^3
     number of atoms/cell      =           72
     number of atomic types    =            2
     number of electrons       =       624.00
     number of Kohn-Sham states=          374
     kinetic-energy cutoff     =      30.0000  Ry
     charge density cutoff     =     300.0000  Ry
     convergence threshold     =      1.0E-08
     mixing beta               =       0.3000
     number of iterations used =            8  local-TF  mixing
     Exchange-correlation      =  SLA  PW   PBE  PBE (1434)
     EXX-fraction              =        0.00

     celldm(1)=  16.708958  celldm(2)=   1.000000  celldm(3)=   0.989708
     celldm(4)=   0.000000  celldm(5)=   0.000000  celldm(6)=   0.000000

     crystal axes: (cart. coord. in units of a_0)
               a(1) = (   1.000000   0.000000   0.000000 )  
               a(2) = (   0.000000   1.000000   0.000000 )  
               a(3) = (   0.000000   0.000000   0.989708 )  

     reciprocal axes: (cart. coord. in units 2 pi/a_0)
               b(1) = (  1.000000  0.000000  0.000000 )  
               b(2) = (  0.000000  1.000000  0.000000 )  
               b(3) = (  0.000000  0.000000  1.010399 )  


     PseudoPot. # 1 for Cr read from file Cr.pbe-van-yufengl.UPF
     MD5 check sum: b3ad88ce73ccf30ec9a6cdad427f0885
     Pseudo is Ultrasoft, Zval = 14.0
     Generated by new atomic code, or converted to UPF format
     Using radial grid of  857 points,  6 beta functions with: 
                l(1) =   0
                l(2) =   0
                l(3) =   1
                l(4) =   1
                l(5) =   2
                l(6) =   2
     Q(r) pseudized with  6 coefficients,  rinner =    1.000   1.000   1.000
                                                       1.000   1.000

     PseudoPot. # 2 for O  read from file O.pbe-van_bm.UPF
     MD5 check sum: ca2828d9fb1f294809e918903b7648d1
     Pseudo is Ultrasoft, Zval =  6.0
     Generated by new atomic code, or converted to UPF format
     Using radial grid of  737 points,  4 beta functions with: 
                l(1) =   0
                l(2) =   0
                l(3) =   1
                l(4) =   1
     Q(r) pseudized with  8 coefficients,  rinner =    0.800   0.800   0.800


     atomic species   valence    mass     pseudopotential
        Cr            14.00    52.00000     Cr( 1.00)
        O              6.00    15.99900     O ( 1.00)

     Starting magnetic structure 
     atomic species   magnetization
        Cr           1.000
        O            0.000

     LDA+U calculation, Hubbard_lmax = 2
     atomic species  L   Hubbard U  Hubbard alpha
        Cr           2    0.257245    0.000000

      8 Sym.Ops. (with inversion)


   Cartesian axes

     site n.     atom                  positions (a_0 units)
         1           Cr  tau(  1) = (   0.0000000   0.0000000   0.0000000  )
         2           Cr  tau(  2) = (   0.0000000   0.0000000   0.3299027  )
         3           Cr  tau(  3) = (   0.0000000   0.0000000   0.6598055  )
         4           Cr  tau(  4) = (   0.0000000   0.5000000   0.0000000  )
         5           Cr  tau(  5) = (   0.0000000   0.5000000   0.3299027  )
         6           Cr  tau(  6) = (   0.0000000   0.5000000   0.6598055  )
         7           Cr  tau(  7) = (   0.5000000   0.0000000   0.0000000  )
         8           Cr  tau(  8) = (   0.5000000   0.0000000   0.3299027  )
         9           Cr  tau(  9) = (   0.5000000   0.0000000   0.6598055  )
        10           Cr  tau( 10) = (   0.5000000   0.5000000   0.0000000  )
        11           Cr  tau( 11) = (   0.5000000   0.5000000   0.3299027  )
        12           Cr  tau( 12) = (   0.5000000   0.5000000   0.6598055  )
        13           Cr  tau( 13) = (   0.2500000   0.2500000   0.1649514  )
        14           Cr  tau( 14) = (   0.2500000   0.2500000   0.4948541  )
        15           Cr  tau( 15) = (   0.2500000   0.2500000   0.8247569  )
        16           Cr  tau( 16) = (   0.2500000   0.7500000   0.1649514  )
        17           Cr  tau( 17) = (   0.2500000   0.7500000   0.4948541  )
        18           Cr  tau( 18) = (   0.2500000   0.7500000   0.8247569  )
        19           Cr  tau( 19) = (   0.7500000   0.2500000   0.1649514  )
        20           Cr  tau( 20) = (   0.7500000   0.2500000   0.4948541  )
        21           Cr  tau( 21) = (   0.7500000   0.2500000   0.8247569  )
        22           Cr  tau( 22) = (   0.7500000   0.7500000   0.1649514  )
        23           Cr  tau( 23) = (   0.7500000   0.7500000   0.4948541  )
        24           Cr  tau( 24) = (   0.7500000   0.7500000   0.8247569  )
        25           O   tau( 25) = (   0.1505000   0.1505000   0.0000000  )
        26           O   tau( 26) = (   0.1505000   0.1505000   0.3299027  )
        27           O   tau( 27) = (   0.1505000   0.1505000   0.6598055  )
        28           O   tau( 28) = (   0.1505000   0.6505000   0.0000000  )
        29           O   tau( 29) = (   0.1505000   0.6505000   0.3299027  )
        30           O   tau( 30) = (   0.1505000   0.6505000   0.6598055  )
        31           O   tau( 31) = (   0.6505000   0.1505000   0.0000000  )
        32           O   tau( 32) = (   0.6505000   0.1505000   0.3299027  )
        33           O   tau( 33) = (   0.6505000   0.1505000   0.6598055  )
        34           O   tau( 34) = (   0.6505000   0.6505000   0.0000000  )
        35           O   tau( 35) = (   0.6505000   0.6505000   0.3299027  )
        36           O   tau( 36) = (   0.6505000   0.6505000   0.6598055  )
        37           O   tau( 37) = (   0.3495000   0.3495000   0.0000000  )
        38           O   tau( 38) = (   0.3495000   0.3495000   0.3299027  )
        39           O   tau( 39) = (   0.3495000   0.3495000   0.6598055  )
        40           O   tau( 40) = (   0.3495000   0.8495000   0.0000000  )
        41           O   tau( 41) = (   0.3495000   0.8495000   0.3299027  )
        42           O   tau( 42) = (   0.3495000   0.8495000   0.6598055  )
        43           O   tau( 43) = (   0.8495000   0.3495000   0.0000000  )
        44           O   tau( 44) = (   0.8495000   0.3495000   0.3299027  )
        45           O   tau( 45) = (   0.8495000   0.3495000   0.6598055  )
        46           O   tau( 46) = (   0.8495000   0.8495000   0.0000000  )
        47           O   tau( 47) = (   0.8495000   0.8495000   0.3299027  )
        48           O   tau( 48) = (   0.8495000   0.8495000   0.6598055  )
        49           O   tau( 49) = (   0.0995000   0.4005000   0.1649514  )
        50           O   tau( 50) = (   0.0995000   0.4005000   0.4948541  )
        51           O   tau( 51) = (   0.0995000   0.4005000   0.8247569  )
        52           O   tau( 52) = (   0.0995000   0.9005000   0.1649514  )
        53           O   tau( 53) = (   0.0995000   0.9005000   0.4948541  )
        54           O   tau( 54) = (   0.0995000   0.9005000   0.8247569  )
        55           O   tau( 55) = (   0.5995000   0.4005000   0.1649514  )
        56           O   tau( 56) = (   0.5995000   0.4005000   0.4948541  )
        57           O   tau( 57) = (   0.5995000   0.4005000   0.8247569  )
        58           O   tau( 58) = (   0.5995000   0.9005000   0.1649514  )
        59           O   tau( 59) = (   0.5995000   0.9005000   0.4948541  )
        60           O   tau( 60) = (   0.5995000   0.9005000   0.8247569  )
        61           O   tau( 61) = (   0.4005000   0.0995000   0.1649514  )
        62           O   tau( 62) = (   0.4005000   0.0995000   0.4948541  )
        63           O   tau( 63) = (   0.4005000   0.0995000   0.8247569  )
        64           O   tau( 64) = (   0.4005000   0.5995000   0.1649514  )
        65           O   tau( 65) = (   0.4005000   0.5995000   0.4948541  )
        66           O   tau( 66) = (   0.4005000   0.5995000   0.8247569  )
        67           O   tau( 67) = (   0.9005000   0.0995000   0.1649514  )
        68           O   tau( 68) = (   0.9005000   0.0995000   0.4948541  )
        69           O   tau( 69) = (   0.9005000   0.0995000   0.8247569  )
        70           O   tau( 70) = (   0.9005000   0.5995000   0.1649514  )
        71           O   tau( 71) = (   0.9005000   0.5995000   0.4948541  )
        72           O   tau( 72) = (   0.9005000   0.5995000   0.8247569  )

     number of k points=    12  Fermi-Dirac smearing, width (Ry)=  0.0019
                       cart. coord. in units 2pi/a_0
        k(    1) = (   0.0000000   0.0000000   0.0000000), wk =   0.1250000
        k(    2) = (   0.0000000   0.0000000  -0.5051994), wk =   0.1250000
        k(    3) = (   0.0000000  -0.5000000   0.0000000), wk =   0.2500000
        k(    4) = (   0.0000000  -0.5000000  -0.5051994), wk =   0.2500000
        k(    5) = (  -0.5000000  -0.5000000   0.0000000), wk =   0.1250000
        k(    6) = (  -0.5000000  -0.5000000  -0.5051994), wk =   0.1250000
        k(    7) = (   0.0000000   0.0000000   0.0000000), wk =   0.1250000
        k(    8) = (   0.0000000   0.0000000  -0.5051994), wk =   0.1250000
        k(    9) = (   0.0000000  -0.5000000   0.0000000), wk =   0.2500000
        k(   10) = (   0.0000000  -0.5000000  -0.5051994), wk =   0.2500000
        k(   11) = (  -0.5000000  -0.5000000   0.0000000), wk =   0.1250000
        k(   12) = (  -0.5000000  -0.5000000  -0.5051994), wk =   0.1250000

     G cutoff = 2121.5842  ( 405123 G-vectors)     FFT grid: ( 96, 96, 96)
     G cutoff =  848.6337  ( 102397 G-vectors)  smooth grid: ( 60, 60, 60)

     Largest allocated arrays     est. size (Mb)     dimensions
        Kohn-Sham Wavefunctions         1.18 Mb     (    207, 374)
        Atomic wavefunctions            1.36 Mb     (    207, 432)
        NL pseudopotentials             2.58 Mb     (    207, 816)
        Each V/rho on FFT grid          0.56 Mb     (  18432,   2)
        Each G-vector array             0.05 Mb     (   6332)
        G-vector shells                 0.02 Mb     (   3092)
     Largest temporary arrays     est. size (Mb)     dimensions
        Auxiliary wavefunctions         4.73 Mb     (    207,1496)
        Each subspace H/S matrix       34.15 Mb     (   1496,1496)
        Each <psi_i|beta_j> matrix      4.66 Mb     (    816, 374)
        Arrays for rho mixing           2.25 Mb     (  18432,   8)

     Initial potential from superposition of free atoms

     starting charge  623.98467, renormalised to  624.00000

     Parameters of the lda+U calculation:
     Number of iteration with fixed ns =  0
     Starting ns and Hubbard U :
 enter write_ns
U( 1) =  3.5000      U( 2) =  0.0000
alpha( 1) =  0.0000      alpha( 2) =  0.0000
atom    1   Tr[ns(na)]=   5.0000000
atom    1   spin  1
eigenvalues:  1.0000000 1.0000000 1.0000000 1.0000000 1.0000000
 eigenvectors
 1   1.0000000  0.0000000  0.0000000  0.0000000  0.0000000
 2   0.0000000  1.0000000  0.0000000  0.0000000  0.0000000
 3   0.0000000  0.0000000  1.0000000  0.0000000  0.0000000
 4   0.0000000  0.0000000  0.0000000  1.0000000  0.0000000
 5   0.0000000  0.0000000  0.0000000  0.0000000  1.0000000
 occupations
 1.000  0.000  0.000  0.000  0.000
 0.000  1.000  0.000  0.000  0.000
 0.000  0.000  1.000  0.000  0.000
 0.000  0.000  0.000  1.000  0.000
 0.000  0.000  0.000  0.000  1.000
atom    1   spin  2
eigenvalues:  0.0000000 0.0000000 0.0000000 0.0000000 0.0000000
 eigenvectors
 1   1.0000000  0.0000000  0.0000000  0.0000000  0.0000000
 2   0.0000000  1.0000000  0.0000000  0.0000000  0.0000000
 3   0.0000000  0.0000000  1.0000000  0.0000000  0.0000000
 4   0.0000000  0.0000000  0.0000000  1.0000000  0.0000000
 5   0.0000000  0.0000000  0.0000000  0.0000000  1.0000000
 occupations
 0.000  0.000  0.000  0.000  0.000
 0.000  0.000  0.000  0.000  0.000
 0.000  0.000  0.000  0.000  0.000
 0.000  0.000  0.000  0.000  0.000
 0.000  0.000  0.000  0.000  0.000
atom    2   Tr[ns(na)]=   5.0000000
atom    2   spin  1
eigenvalues:  1.0000000 1.0000000 1.0000000 1.0000000 1.0000000
 eigenvectors
 1   1.0000000  0.0000000  0.0000000  0.0000000  0.0000000
 2   0.0000000  1.0000000  0.0000000  0.0000000  0.0000000
 3   0.0000000  0.0000000  1.0000000  0.0000000  0.0000000
 4   0.0000000  0.0000000  0.0000000  1.0000000  0.0000000
 5   0.0000000  0.0000000  0.0000000  0.0000000  1.0000000
 occupations
 1.000  0.000  0.000  0.000  0.000
 0.000  1.000  0.000  0.000  0.000
 0.000  0.000  1.000  0.000  0.000
 0.000  0.000  0.000  1.000  0.000
 0.000  0.000  0.000  0.000  1.000
atom    2   spin  2
eigenvalues:  0.0000000 0.0000000 0.0000000 0.0000000 0.0000000
 eigenvectors
 1   1.0000000  0.0000000  0.0000000  0.0000000  0.0000000
 2   0.0000000  1.0000000  0.0000000  0.0000000  0.0000000
 3   0.0000000  0.0000000  1.0000000  0.0000000  0.0000000
 4   0.0000000  0.0000000  0.0000000  1.0000000  0.0000000
 5   0.0000000  0.0000000  0.0000000  0.0000000  1.0000000
 occupations
 0.000  0.000  0.000  0.000  0.000
 0.000  0.000  0.000  0.000  0.000
 0.000  0.000  0.000  0.000  0.000
 0.000  0.000  0.000  0.000  0.000
 0.000  0.000  0.000  0.000  0.000
atom    3   Tr[ns(na)]=   5.0000000
atom    3   spin  1
eigenvalues:  1.0000000 1.0000000 1.0000000 1.0000000 1.0000000
 eigenvectors
 1   1.0000000  0.0000000  0.0000000  0.0000000  0.0000000
 2   0.0000000  1.0000000  0.0000000  0.0000000  0.0000000
 3   0.0000000  0.0000000  1.0000000  0.0000000  0.0000000
 4   0.0000000  0.0000000  0.0000000  1.0000000  0.0000000
 5   0.0000000  0.0000000  0.0000000  0.0000000  1.0000000
 occupations
 1.000  0.000  0.000  0.000  0.000
 0.000  1.000  0.000  0.000  0.000
 0.000  0.000  1.000  0.000  0.000
 0.000  0.000  0.000  1.000  0.000
 0.000  0.000  0.000  0.000  1.000
atom    3   spin  2
eigenvalues:  0.0000000 0.0000000 0.0000000 0.0000000 0.0000000
 eigenvectors
 1   1.0000000  0.0000000  0.0000000  0.0000000  0.0000000
 2   0.0000000  1.0000000  0.0000000  0.0000000  0.0000000
 3   0.0000000  0.0000000  1.0000000  0.0000000  0.0000000
 4   0.0000000  0.0000000  0.0000000  1.0000000  0.0000000
 5   0.0000000  0.0000000  0.0000000  0.0000000  1.0000000
 occupations
 0.000  0.000  0.000  0.000  0.000
 0.000  0.000  0.000  0.000  0.000
 0.000  0.000  0.000  0.000  0.000
 0.000  0.000  0.000  0.000  0.000
 0.000  0.000  0.000  0.000  0.000
atom    4   Tr[ns(na)]=   5.0000000
atom    4   spin  1
eigenvalues:  1.0000000 1.0000000 1.0000000 1.0000000 1.0000000
 eigenvectors
 1   1.0000000  0.0000000  0.0000000  0.0000000  0.0000000
 2   0.0000000  1.0000000  0.0000000  0.0000000  0.0000000
 3   0.0000000  0.0000000  1.0000000  0.0000000  0.0000000
 4   0.0000000  0.0000000  0.0000000  1.0000000  0.0000000
 5   0.0000000  0.0000000  0.0000000  0.0000000  1.0000000
 occupations
 1.000  0.000  0.000  0.000  0.000
 0.000  1.000  0.000  0.000  0.000
 0.000  0.000  1.000  0.000  0.000
 0.000  0.000  0.000  1.000  0.000
 0.000  0.000  0.000  0.000  1.000
atom    4   spin  2
eigenvalues:  0.0000000 0.0000000 0.0000000 0.0000000 0.0000000
 eigenvectors
 1   1.0000000  0.0000000  0.0000000  0.0000000  0.0000000
 2   0.0000000  1.0000000  0.0000000  0.0000000  0.0000000
 3   0.0000000  0.0000000  1.0000000  0.0000000  0.0000000
 4   0.0000000  0.0000000  0.0000000  1.0000000  0.0000000
 5   0.0000000  0.0000000  0.0000000  0.0000000  1.0000000
 occupations
 0.000  0.000  0.000  0.000  0.000
 0.000  0.000  0.000  0.000  0.000
 0.000  0.000  0.000  0.000  0.000
 0.000  0.000  0.000  0.000  0.000
 0.000  0.000  0.000  0.000  0.000
atom    5   Tr[ns(na)]=   5.0000000
atom    5   spin  1
eigenvalues:  1.0000000 1.0000000 1.0000000 1.0000000 1.0000000
 eigenvectors
 1   1.0000000  0.0000000  0.0000000  0.0000000  0.0000000
 2   0.0000000  1.0000000  0.0000000  0.0000000  0.0000000
 3   0.0000000  0.0000000  1.0000000  0.0000000  0.0000000
 4   0.0000000  0.0000000  0.0000000  1.0000000  0.0000000
 5   0.0000000  0.0000000  0.0000000  0.0000000  1.0000000
 occupations
 1.000  0.000  0.000  0.000  0.000
 0.000  1.000  0.000  0.000  0.000
 0.000  0.000  1.000  0.000  0.000
 0.000  0.000  0.000  1.000  0.000
 0.000  0.000  0.000  0.000  1.000
atom    5   spin  2
eigenvalues:  0.0000000 0.0000000 0.0000000 0.0000000 0.0000000
 eigenvectors
 1   1.0000000  0.0000000  0.0000000  0.0000000  0.0000000
 2   0.0000000  1.0000000  0.0000000  0.0000000  0.0000000
 3   0.0000000  0.0000000  1.0000000  0.0000000  0.0000000
 4   0.0000000  0.0000000  0.0000000  1.0000000  0.0000000
 5   0.0000000  0.0000000  0.0000000  0.0000000  1.0000000
 occupations
 0.000  0.000  0.000  0.000  0.000
 0.000  0.000  0.000  0.000  0.000
 0.000  0.000  0.000  0.000  0.000
 0.000  0.000  0.000  0.000  0.000
 0.000  0.000  0.000  0.000  0.000
atom    6   Tr[ns(na)]=   5.0000000
atom    6   spin  1
eigenvalues:  1.0000000 1.0000000 1.0000000 1.0000000 1.0000000
 eigenvectors
 1   1.0000000  0.0000000  0.0000000  0.0000000  0.0000000
 2   0.0000000  1.0000000  0.0000000  0.0000000  0.0000000
 3   0.0000000  0.0000000  1.0000000  0.0000000  0.0000000
 4   0.0000000  0.0000000  0.0000000  1.0000000  0.0000000
 5   0.0000000  0.0000000  0.0000000  0.0000000  1.0000000
 occupations
 1.000  0.000  0.000  0.000  0.000
 0.000  1.000  0.000  0.000  0.000
 0.000  0.000  1.000  0.000  0.000
 0.000  0.000  0.000  1.000  0.000
 0.000  0.000  0.000  0.000  1.000
atom    6   spin  2
eigenvalues:  0.0000000 0.0000000 0.0000000 0.0000000 0.0000000
 eigenvectors
 1   1.0000000  0.0000000  0.0000000  0.0000000  0.0000000
 2   0.0000000  1.0000000  0.0000000  0.0000000  0.0000000
 3   0.0000000  0.0000000  1.0000000  0.0000000  0.0000000
 4   0.0000000  0.0000000  0.0000000  1.0000000  0.0000000
 5   0.0000000  0.0000000  0.0000000  0.0000000  1.0000000
 occupations
 0.000  0.000  0.000  0.000  0.000
 0.000  0.000  0.000  0.000  0.000
 0.000  0.000  0.000  0.000  0.000
 0.000  0.000  0.000  0.000  0.000
 0.000  0.000  0.000  0.000  0.000
atom    7   Tr[ns(na)]=   5.0000000
atom    7   spin  1
eigenvalues:  1.0000000 1.0000000 1.0000000 1.0000000 1.0000000
 eigenvectors
 1   1.0000000  0.0000000  0.0000000  0.0000000  0.0000000
 2   0.0000000  1.0000000  0.0000000  0.0000000  0.0000000
 3   0.0000000  0.0000000  1.0000000  0.0000000  0.0000000
 4   0.0000000  0.0000000  0.0000000  1.0000000  0.0000000
 5   0.0000000  0.0000000  0.0000000  0.0000000  1.0000000
 occupations
 1.000  0.000  0.000  0.000  0.000
 0.000  1.000  0.000  0.000  0.000
 0.000  0.000  1.000  0.000  0.000
 0.000  0.000  0.000  1.000  0.000
 0.000  0.000  0.000  0.000  1.000
atom    7   spin  2
eigenvalues:  0.0000000 0.0000000 0.0000000 0.0000000 0.0000000
 eigenvectors
 1   1.0000000  0.0000000  0.0000000  0.0000000  0.0000000
 2   0.0000000  1.0000000  0.0000000  0.0000000  0.0000000
 3   0.0000000  0.0000000  1.0000000  0.0000000  0.0000000
 4   0.0000000  0.0000000  0.0000000  1.0000000  0.0000000
 5   0.0000000  0.0000000  0.0000000  0.0000000  1.0000000
 occupations
 0.000  0.000  0.000  0.000  0.000
 0.000  0.000  0.000  0.000  0.000
 0.000  0.000  0.000  0.000  0.000
 0.000  0.000  0.000  0.000  0.000
 0.000  0.000  0.000  0.000  0.000
atom    8   Tr[ns(na)]=   5.0000000
atom    8   spin  1
eigenvalues:  1.0000000 1.0000000 1.0000000 1.0000000 1.0000000
 eigenvectors
 1   1.0000000  0.0000000  0.0000000  0.0000000  0.0000000
 2   0.0000000  1.0000000  0.0000000  0.0000000  0.0000000
 3   0.0000000  0.0000000  1.0000000  0.0000000  0.0000000
 4   0.0000000  0.0000000  0.0000000  1.0000000  0.0000000
 5   0.0000000  0.0000000  0.0000000  0.0000000  1.0000000
 occupations
 1.000  0.000  0.000  0.000  0.000
 0.000  1.000  0.000  0.000  0.000
 0.000  0.000  1.000  0.000  0.000
 0.000  0.000  0.000  1.000  0.000
 0.000  0.000  0.000  0.000  1.000
atom    8   spin  2
eigenvalues:  0.0000000 0.0000000 0.0000000 0.0000000 0.0000000
 eigenvectors
 1   1.0000000  0.0000000  0.0000000  0.0000000  0.0000000
 2   0.0000000  1.0000000  0.0000000  0.0000000  0.0000000
 3   0.0000000  0.0000000  1.0000000  0.0000000  0.0000000
 4   0.0000000  0.0000000  0.0000000  1.0000000  0.0000000
 5   0.0000000  0.0000000  0.0000000  0.0000000  1.0000000
 occupations
 0.000  0.000  0.000  0.000  0.000
 0.000  0.000  0.000  0.000  0.000
 0.000  0.000  0.000  0.000  0.000
 0.000  0.000  0.000  0.000  0.000
 0.000  0.000  0.000  0.000  0.000
atom    9   Tr[ns(na)]=   5.0000000
atom    9   spin  1
eigenvalues:  1.0000000 1.0000000 1.0000000 1.0000000 1.0000000
 eigenvectors
 1   1.0000000  0.0000000  0.0000000  0.0000000  0.0000000
 2   0.0000000  1.0000000  0.0000000  0.0000000  0.0000000
 3   0.0000000  0.0000000  1.0000000  0.0000000  0.0000000
 4   0.0000000  0.0000000  0.0000000  1.0000000  0.0000000
 5   0.0000000  0.0000000  0.0000000  0.0000000  1.0000000
 occupations
 1.000  0.000  0.000  0.000  0.000
 0.000  1.000  0.000  0.000  0.000
 0.000  0.000  1.000  0.000  0.000
 0.000  0.000  0.000  1.000  0.000
 0.000  0.000  0.000  0.000  1.000
atom    9   spin  2
eigenvalues:  0.0000000 0.0000000 0.0000000 0.0000000 0.0000000
 eigenvectors
 1   1.0000000  0.0000000  0.0000000  0.0000000  0.0000000
 2   0.0000000  1.0000000  0.0000000  0.0000000  0.0000000
 3   0.0000000  0.0000000  1.0000000  0.0000000  0.0000000
 4   0.0000000  0.0000000  0.0000000  1.0000000  0.0000000
 5   0.0000000  0.0000000  0.0000000  0.0000000  1.0000000
 occupations
 0.000  0.000  0.000  0.000  0.000
 0.000  0.000  0.000  0.000  0.000
 0.000  0.000  0.000  0.000  0.000
 0.000  0.000  0.000  0.000  0.000
 0.000  0.000  0.000  0.000  0.000
atom   10   Tr[ns(na)]=   5.0000000
atom   10   spin  1
eigenvalues:  1.0000000 1.0000000 1.0000000 1.0000000 1.0000000
 eigenvectors
 1   1.0000000  0.0000000  0.0000000  0.0000000  0.0000000
 2   0.0000000  1.0000000  0.0000000  0.0000000  0.0000000
 3   0.0000000  0.0000000  1.0000000  0.0000000  0.0000000
 4   0.0000000  0.0000000  0.0000000  1.0000000  0.0000000
 5   0.0000000  0.0000000  0.0000000  0.0000000  1.0000000
 occupations
 1.000  0.000  0.000  0.000  0.000
 0.000  1.000  0.000  0.000  0.000
 0.000  0.000  1.000  0.000  0.000
 0.000  0.000  0.000  1.000  0.000
 0.000  0.000  0.000  0.000  1.000
atom   10   spin  2
eigenvalues:  0.0000000 0.0000000 0.0000000 0.0000000 0.0000000
 eigenvectors
 1   1.0000000  0.0000000  0.0000000  0.0000000  0.0000000
 2   0.0000000  1.0000000  0.0000000  0.0000000  0.0000000
 3   0.0000000  0.0000000  1.0000000  0.0000000  0.0000000
 4   0.0000000  0.0000000  0.0000000  1.0000000  0.0000000
 5   0.0000000  0.0000000  0.0000000  0.0000000  1.0000000
 occupations
 0.000  0.000  0.000  0.000  0.000
 0.000  0.000  0.000  0.000  0.000
 0.000  0.000  0.000  0.000  0.000
 0.000  0.000  0.000  0.000  0.000
 0.000  0.000  0.000  0.000  0.000
atom   11   Tr[ns(na)]=   5.0000000
atom   11   spin  1
eigenvalues:  1.0000000 1.0000000 1.0000000 1.0000000 1.0000000
 eigenvectors
 1   1.0000000  0.0000000  0.0000000  0.0000000  0.0000000
 2   0.0000000  1.0000000  0.0000000  0.0000000  0.0000000
 3   0.0000000  0.0000000  1.0000000  0.0000000  0.0000000
 4   0.0000000  0.0000000  0.0000000  1.0000000  0.0000000
 5   0.0000000  0.0000000  0.0000000  0.0000000  1.0000000
 occupations
 1.000  0.000  0.000  0.000  0.000
 0.000  1.000  0.000  0.000  0.000
 0.000  0.000  1.000  0.000  0.000
 0.000  0.000  0.000  1.000  0.000
 0.000  0.000  0.000  0.000  1.000
atom   11   spin  2
eigenvalues:  0.0000000 0.0000000 0.0000000 0.0000000 0.0000000
 eigenvectors
 1   1.0000000  0.0000000  0.0000000  0.0000000  0.0000000
 2   0.0000000  1.0000000  0.0000000  0.0000000  0.0000000
 3   0.0000000  0.0000000  1.0000000  0.0000000  0.0000000
 4   0.0000000  0.0000000  0.0000000  1.0000000  0.0000000
 5   0.0000000  0.0000000  0.0000000  0.0000000  1.0000000
 occupations
 0.000  0.000  0.000  0.000  0.000
 0.000  0.000  0.000  0.000  0.000
 0.000  0.000  0.000  0.000  0.000
 0.000  0.000  0.000  0.000  0.000
 0.000  0.000  0.000  0.000  0.000
atom   12   Tr[ns(na)]=   5.0000000
atom   12   spin  1
eigenvalues:  1.0000000 1.0000000 1.0000000 1.0000000 1.0000000
 eigenvectors
 1   1.0000000  0.0000000  0.0000000  0.0000000  0.0000000
 2   0.0000000  1.0000000  0.0000000  0.0000000  0.0000000
 3   0.0000000  0.0000000  1.0000000  0.0000000  0.0000000
 4   0.0000000  0.0000000  0.0000000  1.0000000  0.0000000
 5   0.0000000  0.0000000  0.0000000  0.0000000  1.0000000
 occupations
 1.000  0.000  0.000  0.000  0.000
 0.000  1.000  0.000  0.000  0.000
 0.000  0.000  1.000  0.000  0.000
 0.000  0.000  0.000  1.000  0.000
 0.000  0.000  0.000  0.000  1.000
atom   12   spin  2
eigenvalues:  0.0000000 0.0000000 0.0000000 0.0000000 0.0000000
 eigenvectors
 1   1.0000000  0.0000000  0.0000000  0.0000000  0.0000000
 2   0.0000000  1.0000000  0.0000000  0.0000000  0.0000000
 3   0.0000000  0.0000000  1.0000000  0.0000000  0.0000000
 4   0.0000000  0.0000000  0.0000000  1.0000000  0.0000000
 5   0.0000000  0.0000000  0.0000000  0.0000000  1.0000000
 occupations
 0.000  0.000  0.000  0.000  0.000
 0.000  0.000  0.000  0.000  0.000
 0.000  0.000  0.000  0.000  0.000
 0.000  0.000  0.000  0.000  0.000
 0.000  0.000  0.000  0.000  0.000
atom   13   Tr[ns(na)]=   5.0000000
atom   13   spin  1
eigenvalues:  1.0000000 1.0000000 1.0000000 1.0000000 1.0000000
 eigenvectors
 1   1.0000000  0.0000000  0.0000000  0.0000000  0.0000000
 2   0.0000000  1.0000000  0.0000000  0.0000000  0.0000000
 3   0.0000000  0.0000000  1.0000000  0.0000000  0.0000000
 4   0.0000000  0.0000000  0.0000000  1.0000000  0.0000000
 5   0.0000000  0.0000000  0.0000000  0.0000000  1.0000000
 occupations
 1.000  0.000  0.000  0.000  0.000
 0.000  1.000  0.000  0.000  0.000
 0.000  0.000  1.000  0.000  0.000
 0.000  0.000  0.000  1.000  0.000
 0.000  0.000  0.000  0.000  1.000
atom   13   spin  2
eigenvalues:  0.0000000 0.0000000 0.0000000 0.0000000 0.0000000
 eigenvectors
 1   1.0000000  0.0000000  0.0000000  0.0000000  0.0000000
 2   0.0000000  1.0000000  0.0000000  0.0000000  0.0000000
 3   0.0000000  0.0000000  1.0000000  0.0000000  0.0000000
 4   0.0000000  0.0000000  0.0000000  1.0000000  0.0000000
 5   0.0000000  0.0000000  0.0000000  0.0000000  1.0000000
 occupations
 0.000  0.000  0.000  0.000  0.000
 0.000  0.000  0.000  0.000  0.000
 0.000  0.000  0.000  0.000  0.000
 0.000  0.000  0.000  0.000  0.000
 0.000  0.000  0.000  0.000  0.000
atom   14   Tr[ns(na)]=   5.0000000
atom   14   spin  1
eigenvalues:  1.0000000 1.0000000 1.0000000 1.0000000 1.0000000
 eigenvectors
 1   1.0000000  0.0000000  0.0000000  0.0000000  0.0000000
 2   0.0000000  1.0000000  0.0000000  0.0000000  0.0000000
 3   0.0000000  0.0000000  1.0000000  0.0000000  0.0000000
 4   0.0000000  0.0000000  0.0000000  1.0000000  0.0000000
 5   0.0000000  0.0000000  0.0000000  0.0000000  1.0000000
 occupations
 1.000  0.000  0.000  0.000  0.000
 0.000  1.000  0.000  0.000  0.000
 0.000  0.000  1.000  0.000  0.000
 0.000  0.000  0.000  1.000  0.000
 0.000  0.000  0.000  0.000  1.000
atom   14   spin  2
eigenvalues:  0.0000000 0.0000000 0.0000000 0.0000000 0.0000000
 eigenvectors
 1   1.0000000  0.0000000  0.0000000  0.0000000  0.0000000
 2   0.0000000  1.0000000  0.0000000  0.0000000  0.0000000
 3   0.0000000  0.0000000  1.0000000  0.0000000  0.0000000
 4   0.0000000  0.0000000  0.0000000  1.0000000  0.0000000
 5   0.0000000  0.0000000  0.0000000  0.0000000  1.0000000
 occupations
 0.000  0.000  0.000  0.000  0.000
 0.000  0.000  0.000  0.000  0.000
 0.000  0.000  0.000  0.000  0.000
 0.000  0.000  0.000  0.000  0.000
 0.000  0.000  0.000  0.000  0.000
atom   15   Tr[ns(na)]=   5.0000000
atom   15   spin  1
eigenvalues:  1.0000000 1.0000000 1.0000000 1.0000000 1.0000000
 eigenvectors
 1   1.0000000  0.0000000  0.0000000  0.0000000  0.0000000
 2   0.0000000  1.0000000  0.0000000  0.0000000  0.0000000
 3   0.0000000  0.0000000  1.0000000  0.0000000  0.0000000
 4   0.0000000  0.0000000  0.0000000  1.0000000  0.0000000
 5   0.0000000  0.0000000  0.0000000  0.0000000  1.0000000
 occupations
 1.000  0.000  0.000  0.000  0.000
 0.000  1.000  0.000  0.000  0.000
 0.000  0.000  1.000  0.000  0.000
 0.000  0.000  0.000  1.000  0.000
 0.000  0.000  0.000  0.000  1.000
atom   15   spin  2
eigenvalues:  0.0000000 0.0000000 0.0000000 0.0000000 0.0000000
 eigenvectors
 1   1.0000000  0.0000000  0.0000000  0.0000000  0.0000000
 2   0.0000000  1.0000000  0.0000000  0.0000000  0.0000000
 3   0.0000000  0.0000000  1.0000000  0.0000000  0.0000000
 4   0.0000000  0.0000000  0.0000000  1.0000000  0.0000000
 5   0.0000000  0.0000000  0.0000000  0.0000000  1.0000000
 occupations
 0.000  0.000  0.000  0.000  0.000
 0.000  0.000  0.000  0.000  0.000
 0.000  0.000  0.000  0.000  0.000
 0.000  0.000  0.000  0.000  0.000
 0.000  0.000  0.000  0.000  0.000
atom   16   Tr[ns(na)]=   5.0000000
atom   16   spin  1
eigenvalues:  1.0000000 1.0000000 1.0000000 1.0000000 1.0000000
 eigenvectors
 1   1.0000000  0.0000000  0.0000000  0.0000000  0.0000000
 2   0.0000000  1.0000000  0.0000000  0.0000000  0.0000000
 3   0.0000000  0.0000000  1.0000000  0.0000000  0.0000000
 4   0.0000000  0.0000000  0.0000000  1.0000000  0.0000000
 5   0.0000000  0.0000000  0.0000000  0.0000000  1.0000000
 occupations
 1.000  0.000  0.000  0.000  0.000
 0.000  1.000  0.000  0.000  0.000
 0.000  0.000  1.000  0.000  0.000
 0.000  0.000  0.000  1.000  0.000
 0.000  0.000  0.000  0.000  1.000
atom   16   spin  2
eigenvalues:  0.0000000 0.0000000 0.0000000 0.0000000 0.0000000
 eigenvectors
 1   1.0000000  0.0000000  0.0000000  0.0000000  0.0000000
 2   0.0000000  1.0000000  0.0000000  0.0000000  0.0000000
 3   0.0000000  0.0000000  1.0000000  0.0000000  0.0000000
 4   0.0000000  0.0000000  0.0000000  1.0000000  0.0000000
 5   0.0000000  0.0000000  0.0000000  0.0000000  1.0000000
 occupations
 0.000  0.000  0.000  0.000  0.000
 0.000  0.000  0.000  0.000  0.000
 0.000  0.000  0.000  0.000  0.000
 0.000  0.000  0.000  0.000  0.000
 0.000  0.000  0.000  0.000  0.000
atom   17   Tr[ns(na)]=   5.0000000
atom   17   spin  1
eigenvalues:  1.0000000 1.0000000 1.0000000 1.0000000 1.0000000
 eigenvectors
 1   1.0000000  0.0000000  0.0000000  0.0000000  0.0000000
 2   0.0000000  1.0000000  0.0000000  0.0000000  0.0000000
 3   0.0000000  0.0000000  1.0000000  0.0000000  0.0000000
 4   0.0000000  0.0000000  0.0000000  1.0000000  0.0000000
 5   0.0000000  0.0000000  0.0000000  0.0000000  1.0000000
 occupations
 1.000  0.000  0.000  0.000  0.000
 0.000  1.000  0.000  0.000  0.000
 0.000  0.000  1.000  0.000  0.000
 0.000  0.000  0.000  1.000  0.000
 0.000  0.000  0.000  0.000  1.000
atom   17   spin  2
eigenvalues:  0.0000000 0.0000000 0.0000000 0.0000000 0.0000000
 eigenvectors
 1   1.0000000  0.0000000  0.0000000  0.0000000  0.0000000
 2   0.0000000  1.0000000  0.0000000  0.0000000  0.0000000
 3   0.0000000  0.0000000  1.0000000  0.0000000  0.0000000
 4   0.0000000  0.0000000  0.0000000  1.0000000  0.0000000
 5   0.0000000  0.0000000  0.0000000  0.0000000  1.0000000
 occupations
 0.000  0.000  0.000  0.000  0.000
 0.000  0.000  0.000  0.000  0.000
 0.000  0.000  0.000  0.000  0.000
 0.000  0.000  0.000  0.000  0.000
 0.000  0.000  0.000  0.000  0.000
atom   18   Tr[ns(na)]=   5.0000000
atom   18   spin  1
eigenvalues:  1.0000000 1.0000000 1.0000000 1.0000000 1.0000000
 eigenvectors
 1   1.0000000  0.0000000  0.0000000  0.0000000  0.0000000
 2   0.0000000  1.0000000  0.0000000  0.0000000  0.0000000
 3   0.0000000  0.0000000  1.0000000  0.0000000  0.0000000
 4   0.0000000  0.0000000  0.0000000  1.0000000  0.0000000
 5   0.0000000  0.0000000  0.0000000  0.0000000  1.0000000
 occupations
 1.000  0.000  0.000  0.000  0.000
 0.000  1.000  0.000  0.000  0.000
 0.000  0.000  1.000  0.000  0.000
 0.000  0.000  0.000  1.000  0.000
 0.000  0.000  0.000  0.000  1.000
atom   18   spin  2
eigenvalues:  0.0000000 0.0000000 0.0000000 0.0000000 0.0000000
 eigenvectors
 1   1.0000000  0.0000000  0.0000000  0.0000000  0.0000000
 2   0.0000000  1.0000000  0.0000000  0.0000000  0.0000000
 3   0.0000000  0.0000000  1.0000000  0.0000000  0.0000000
 4   0.0000000  0.0000000  0.0000000  1.0000000  0.0000000
 5   0.0000000  0.0000000  0.0000000  0.0000000  1.0000000
 occupations
 0.000  0.000  0.000  0.000  0.000
 0.000  0.000  0.000  0.000  0.000
 0.000  0.000  0.000  0.000  0.000
 0.000  0.000  0.000  0.000  0.000
 0.000  0.000  0.000  0.000  0.000
atom   19   Tr[ns(na)]=   5.0000000
atom   19   spin  1
eigenvalues:  1.0000000 1.0000000 1.0000000 1.0000000 1.0000000
 eigenvectors
 1   1.0000000  0.0000000  0.0000000  0.0000000  0.0000000
 2   0.0000000  1.0000000  0.0000000  0.0000000  0.0000000
 3   0.0000000  0.0000000  1.0000000  0.0000000  0.0000000
 4   0.0000000  0.0000000  0.0000000  1.0000000  0.0000000
 5   0.0000000  0.0000000  0.0000000  0.0000000  1.0000000
 occupations
 1.000  0.000  0.000  0.000  0.000
 0.000  1.000  0.000  0.000  0.000
 0.000  0.000  1.000  0.000  0.000
 0.000  0.000  0.000  1.000  0.000
 0.000  0.000  0.000  0.000  1.000
atom   19   spin  2
eigenvalues:  0.0000000 0.0000000 0.0000000 0.0000000 0.0000000
 eigenvectors
 1   1.0000000  0.0000000  0.0000000  0.0000000  0.0000000
 2   0.0000000  1.0000000  0.0000000  0.0000000  0.0000000
 3   0.0000000  0.0000000  1.0000000  0.0000000  0.0000000
 4   0.0000000  0.0000000  0.0000000  1.0000000  0.0000000
 5   0.0000000  0.0000000  0.0000000  0.0000000  1.0000000
 occupations
 0.000  0.000  0.000  0.000  0.000
 0.000  0.000  0.000  0.000  0.000
 0.000  0.000  0.000  0.000  0.000
 0.000  0.000  0.000  0.000  0.000
 0.000  0.000  0.000  0.000  0.000
atom   20   Tr[ns(na)]=   5.0000000
atom   20   spin  1
eigenvalues:  1.0000000 1.0000000 1.0000000 1.0000000 1.0000000
 eigenvectors
 1   1.0000000  0.0000000  0.0000000  0.0000000  0.0000000
 2   0.0000000  1.0000000  0.0000000  0.0000000  0.0000000
 3   0.0000000  0.0000000  1.0000000  0.0000000  0.0000000
 4   0.0000000  0.0000000  0.0000000  1.0000000  0.0000000
 5   0.0000000  0.0000000  0.0000000  0.0000000  1.0000000
 occupations
 1.000  0.000  0.000  0.000  0.000
 0.000  1.000  0.000  0.000  0.000
 0.000  0.000  1.000  0.000  0.000
 0.000  0.000  0.000  1.000  0.000
 0.000  0.000  0.000  0.000  1.000
atom   20   spin  2
eigenvalues:  0.0000000 0.0000000 0.0000000 0.0000000 0.0000000
 eigenvectors
 1   1.0000000  0.0000000  0.0000000  0.0000000  0.0000000
 2   0.0000000  1.0000000  0.0000000  0.0000000  0.0000000
 3   0.0000000  0.0000000  1.0000000  0.0000000  0.0000000
 4   0.0000000  0.0000000  0.0000000  1.0000000  0.0000000
 5   0.0000000  0.0000000  0.0000000  0.0000000  1.0000000
 occupations
 0.000  0.000  0.000  0.000  0.000
 0.000  0.000  0.000  0.000  0.000
 0.000  0.000  0.000  0.000  0.000
 0.000  0.000  0.000  0.000  0.000
 0.000  0.000  0.000  0.000  0.000
atom   21   Tr[ns(na)]=   5.0000000
atom   21   spin  1
eigenvalues:  1.0000000 1.0000000 1.0000000 1.0000000 1.0000000
 eigenvectors
 1   1.0000000  0.0000000  0.0000000  0.0000000  0.0000000
 2   0.0000000  1.0000000  0.0000000  0.0000000  0.0000000
 3   0.0000000  0.0000000  1.0000000  0.0000000  0.0000000
 4   0.0000000  0.0000000  0.0000000  1.0000000  0.0000000
 5   0.0000000  0.0000000  0.0000000  0.0000000  1.0000000
 occupations
 1.000  0.000  0.000  0.000  0.000
 0.000  1.000  0.000  0.000  0.000
 0.000  0.000  1.000  0.000  0.000
 0.000  0.000  0.000  1.000  0.000
 0.000  0.000  0.000  0.000  1.000
atom   21   spin  2
eigenvalues:  0.0000000 0.0000000 0.0000000 0.0000000 0.0000000
 eigenvectors
 1   1.0000000  0.0000000  0.0000000  0.0000000  0.0000000
 2   0.0000000  1.0000000  0.0000000  0.0000000  0.0000000
 3   0.0000000  0.0000000  1.0000000  0.0000000  0.0000000
 4   0.0000000  0.0000000  0.0000000  1.0000000  0.0000000
 5   0.0000000  0.0000000  0.0000000  0.0000000  1.0000000
 occupations
 0.000  0.000  0.000  0.000  0.000
 0.000  0.000  0.000  0.000  0.000
 0.000  0.000  0.000  0.000  0.000
 0.000  0.000  0.000  0.000  0.000
 0.000  0.000  0.000  0.000  0.000
atom   22   Tr[ns(na)]=   5.0000000
atom   22   spin  1
eigenvalues:  1.0000000 1.0000000 1.0000000 1.0000000 1.0000000
 eigenvectors
 1   1.0000000  0.0000000  0.0000000  0.0000000  0.0000000
 2   0.0000000  1.0000000  0.0000000  0.0000000  0.0000000
 3   0.0000000  0.0000000  1.0000000  0.0000000  0.0000000
 4   0.0000000  0.0000000  0.0000000  1.0000000  0.0000000
 5   0.0000000  0.0000000  0.0000000  0.0000000  1.0000000
 occupations
 1.000  0.000  0.000  0.000  0.000
 0.000  1.000  0.000  0.000  0.000
 0.000  0.000  1.000  0.000  0.000
 0.000  0.000  0.000  1.000  0.000
 0.000  0.000  0.000  0.000  1.000
atom   22   spin  2
eigenvalues:  0.0000000 0.0000000 0.0000000 0.0000000 0.0000000
 eigenvectors
 1   1.0000000  0.0000000  0.0000000  0.0000000  0.0000000
 2   0.0000000  1.0000000  0.0000000  0.0000000  0.0000000
 3   0.0000000  0.0000000  1.0000000  0.0000000  0.0000000
 4   0.0000000  0.0000000  0.0000000  1.0000000  0.0000000
 5   0.0000000  0.0000000  0.0000000  0.0000000  1.0000000
 occupations
 0.000  0.000  0.000  0.000  0.000
 0.000  0.000  0.000  0.000  0.000
 0.000  0.000  0.000  0.000  0.000
 0.000  0.000  0.000  0.000  0.000
 0.000  0.000  0.000  0.000  0.000
atom   23   Tr[ns(na)]=   5.0000000
atom   23   spin  1
eigenvalues:  1.0000000 1.0000000 1.0000000 1.0000000 1.0000000
 eigenvectors
 1   1.0000000  0.0000000  0.0000000  0.0000000  0.0000000
 2   0.0000000  1.0000000  0.0000000  0.0000000  0.0000000
 3   0.0000000  0.0000000  1.0000000  0.0000000  0.0000000
 4   0.0000000  0.0000000  0.0000000  1.0000000  0.0000000
 5   0.0000000  0.0000000  0.0000000  0.0000000  1.0000000
 occupations
 1.000  0.000  0.000  0.000  0.000
 0.000  1.000  0.000  0.000  0.000
 0.000  0.000  1.000  0.000  0.000
 0.000  0.000  0.000  1.000  0.000
 0.000  0.000  0.000  0.000  1.000
atom   23   spin  2
eigenvalues:  0.0000000 0.0000000 0.0000000 0.0000000 0.0000000
 eigenvectors
 1   1.0000000  0.0000000  0.0000000  0.0000000  0.0000000
 2   0.0000000  1.0000000  0.0000000  0.0000000  0.0000000
 3   0.0000000  0.0000000  1.0000000  0.0000000  0.0000000
 4   0.0000000  0.0000000  0.0000000  1.0000000  0.0000000
 5   0.0000000  0.0000000  0.0000000  0.0000000  1.0000000
 occupations
 0.000  0.000  0.000  0.000  0.000
 0.000  0.000  0.000  0.000  0.000
 0.000  0.000  0.000  0.000  0.000
 0.000  0.000  0.000  0.000  0.000
 0.000  0.000  0.000  0.000  0.000
atom   24   Tr[ns(na)]=   5.0000000
atom   24   spin  1
eigenvalues:  1.0000000 1.0000000 1.0000000 1.0000000 1.0000000
 eigenvectors
 1   1.0000000  0.0000000  0.0000000  0.0000000  0.0000000
 2   0.0000000  1.0000000  0.0000000  0.0000000  0.0000000
 3   0.0000000  0.0000000  1.0000000  0.0000000  0.0000000
 4   0.0000000  0.0000000  0.0000000  1.0000000  0.0000000
 5   0.0000000  0.0000000  0.0000000  0.0000000  1.0000000
 occupations
 1.000  0.000  0.000  0.000  0.000
 0.000  1.000  0.000  0.000  0.000
 0.000  0.000  1.000  0.000  0.000
 0.000  0.000  0.000  1.000  0.000
 0.000  0.000  0.000  0.000  1.000
atom   24   spin  2
eigenvalues:  0.0000000 0.0000000 0.0000000 0.0000000 0.0000000
 eigenvectors
 1   1.0000000  0.0000000  0.0000000  0.0000000  0.0000000
 2   0.0000000  1.0000000  0.0000000  0.0000000  0.0000000
 3   0.0000000  0.0000000  1.0000000  0.0000000  0.0000000
 4   0.0000000  0.0000000  0.0000000  1.0000000  0.0000000
 5   0.0000000  0.0000000  0.0000000  0.0000000  1.0000000
 occupations
 0.000  0.000  0.000  0.000  0.000
 0.000  0.000  0.000  0.000  0.000
 0.000  0.000  0.000  0.000  0.000
 0.000  0.000  0.000  0.000  0.000
 0.000  0.000  0.000  0.000  0.000
nsum = 120.0000000
 exit write_ns
 Atomic wfc used for LDA+U Projector are NOT orthogonalized
     Starting wfc are  432 atomic wfcs

     total cpu time spent up to now is     34.60 secs

     per-process dynamical memory:    89.3 Mb

     Self-consistent Calculation

     iteration #  1     ecut=    30.00 Ry     beta=0.30
     Davidson diagonalization with overlap
     ethr =  1.00E-02,  avg # of iterations =  4.5
 enter write_ns
U( 1) =  3.5000      U( 2) =  0.0000
alpha( 1) =  0.0000      alpha( 2) =  0.0000
atom    1   Tr[ns(na)]=   4.6116252
atom    1   spin  1
eigenvalues:  0.6633134 0.6835240 0.8137039 0.9015902 0.9779779
 eigenvectors
 1  -0.0000000 -0.7071068  0.7071068  0.0000000  0.0000000
 2  -0.5019634  0.0000000 -0.0000000  0.0000000  0.8648888
 3  -0.0000000  0.0000000  0.0000000 -1.0000000  0.0000000
 4   0.0000000 -0.7071068 -0.7071068 -0.0000000 -0.0000000
 5   0.8648888 -0.0000000  0.0000000 -0.0000000  0.5019634
 occupations
 0.904 -0.000 -0.000  0.000  0.128
-0.000  0.782  0.119  0.000  0.000
-0.000  0.119  0.782  0.000  0.000
 0.000  0.000  0.000  0.814 -0.000
 0.128  0.000  0.000 -0.000  0.758
atom    1   spin  2
eigenvalues:  0.0651463 0.0651846 0.0741514 0.1754287 0.1916048
 eigenvectors
 1   0.8016532 -0.0000000 -0.0000000  0.0000000  0.5977894
 2   0.0000000  0.0000000  0.0000000 -1.0000000  0.0000000
 3  -0.0000000 -0.7071068 -0.7071068 -0.0000000  0.0000000
 4  -0.0000000 -0.7071068  0.7071068 -0.0000000  0.0000000
 5  -0.5977894  0.0000000 -0.0000000 -0.0000000  0.8016532
 occupations
 0.110 -0.000 -0.000  0.000 -0.061
-0.000  0.125 -0.051  0.000  0.000
-0.000 -0.051  0.125 -0.000  0.000
 0.000  0.000 -0.000  0.065 -0.000
-0.061  0.000  0.000 -0.000  0.146
atom    2   Tr[ns(na)]=   4.6111395
atom    2   spin  1
eigenvalues:  0.6628695 0.6833367 0.8137051 0.9015821 0.9781370
 eigenvectors
 1  -0.0000000 -0.7071068  0.7071068  0.0000000  0.0000000
 2  -0.5017644 -0.0000000 -0.0000000  0.0000000  0.8650043
 3   0.0000000 -0.0000000 -0.0000000  1.0000000 -0.0000000
 4   0.0000000 -0.7071068 -0.7071068 -0.0000000 -0.0000000
 5   0.8650043 -0.0000000  0.0000000 -0.0000000  0.5017644
 occupations
 0.904 -0.000 -0.000  0.000  0.128
-0.000  0.782  0.119  0.000  0.000
-0.000  0.119  0.782  0.000  0.000
 0.000  0.000  0.000  0.814 -0.000
 0.128  0.000  0.000 -0.000  0.758
atom    2   spin  2
eigenvalues:  0.0651540 0.0651836 0.0741550 0.1754252 0.1915912
 eigenvectors
 1   0.8017329 -0.0000000 -0.0000000  0.0000000  0.5976825
 2   0.0000000  0.0000000  0.0000000 -1.0000000  0.0000000
 3  -0.0000000 -0.7071068 -0.7071068 -0.0000000  0.0000000
 4  -0.0000000 -0.7071068  0.7071068 -0.0000000  0.0000000
 5  -0.5976825  0.0000000 -0.0000000 -0.0000000  0.8017329
 occupations
 0.110 -0.000 -0.000  0.000 -0.061
-0.000  0.125 -0.051  0.000  0.000
-0.000 -0.051  0.125 -0.000  0.000
 0.000  0.000 -0.000  0.065 -0.000
-0.061  0.000  0.000 -0.000  0.146
atom    3   Tr[ns(na)]=   4.6111395
atom    3   spin  1
eigenvalues:  0.6628695 0.6833367 0.8137051 0.9015821 0.9781370
 eigenvectors
 1  -0.0000000 -0.7071068  0.7071068  0.0000000  0.0000000
 2  -0.5017644 -0.0000000 -0.0000000  0.0000000  0.8650043
 3   0.0000000 -0.0000000 -0.0000000  1.0000000 -0.0000000
 4   0.0000000 -0.7071068 -0.7071068 -0.0000000 -0.0000000
 5   0.8650043 -0.0000000  0.0000000 -0.0000000  0.5017644
 occupations
 0.904 -0.000 -0.000  0.000  0.128
-0.000  0.782  0.119  0.000  0.000
-0.000  0.119  0.782  0.000  0.000
 0.000  0.000  0.000  0.814 -0.000
 0.128  0.000  0.000 -0.000  0.758
atom    3   spin  2
eigenvalues:  0.0651540 0.0651836 0.0741550 0.1754252 0.1915912
 eigenvectors
 1   0.8017329 -0.0000000 -0.0000000  0.0000000  0.5976825
 2   0.0000000  0.0000000  0.0000000 -1.0000000  0.0000000
 3  -0.0000000 -0.7071068 -0.7071068 -0.0000000  0.0000000
 4  -0.0000000 -0.7071068  0.7071068 -0.0000000  0.0000000
 5  -0.5976825  0.0000000 -0.0000000 -0.0000000  0.8017329
 occupations
 0.110 -0.000 -0.000  0.000 -0.061
-0.000  0.125 -0.051  0.000  0.000
-0.000 -0.051  0.125 -0.000  0.000
 0.000  0.000 -0.000  0.065 -0.000
-0.061  0.000  0.000 -0.000  0.146
atom    4   Tr[ns(na)]=   4.6114965
atom    4   spin  1
eigenvalues:  0.6632829 0.6833819 0.8137043 0.9016071 0.9780214
 eigenvectors
 1  -0.0000000 -0.7070967  0.7071169  0.0000000  0.0000000
 2   0.5020018 -0.0000000  0.0000000  0.0000816 -0.8648666
 3   0.0000141  0.0000000  0.0000000 -1.0000000 -0.0000861
 4   0.0000000 -0.7071169 -0.7070967 -0.0000000 -0.0000000
 5   0.8648666 -0.0000000  0.0000000 -0.0000310  0.5020018
 occupations
 0.904 -0.000 -0.000 -0.000  0.128
-0.000  0.782  0.119  0.000  0.000
-0.000  0.119  0.782  0.000  0.000
-0.000  0.000  0.000  0.814  0.000
 0.128  0.000  0.000  0.000  0.758
atom    4   spin  2
eigenvalues:  0.0651456 0.0651845 0.0741518 0.1754182 0.1915986
 eigenvectors
 1   0.8016598 -0.0000000 -0.0000000 -0.0027722  0.5977741
 2  -0.0022205  0.0000000  0.0000000 -0.9999962 -0.0016597
 3   0.0000000  0.7071825  0.7070310  0.0000000 -0.0000000
 4  -0.0000000 -0.7070310  0.7071825 -0.0000000  0.0000000
 5  -0.5977764  0.0000000 -0.0000000 -0.0000031  0.8016629
 occupations
 0.110 -0.000 -0.000  0.000 -0.061
-0.000  0.125 -0.051  0.000  0.000
-0.000 -0.051  0.125 -0.000  0.000
 0.000  0.000 -0.000  0.065 -0.000
-0.061  0.000  0.000 -0.000  0.146
atom    5   Tr[ns(na)]=   4.6108897
atom    5   spin  1
eigenvalues:  0.6626786 0.6832708 0.8137049 0.9015935 0.9781479
 eigenvectors
 1   0.0000000  0.7069445 -0.7072690 -0.0000000 -0.0000000
 2  -0.5017876 -0.0000000 -0.0000000 -0.0000049  0.8649909
 3  -0.0000055  0.0000000  0.0000000 -1.0000000 -0.0000089
 4   0.0000000 -0.7072690 -0.7069445 -0.0000000 -0.0000000
 5   0.8649909 -0.0000000  0.0000000 -0.0000093  0.5017876
 occupations
 0.904 -0.000 -0.000 -0.000  0.128
-0.000  0.782  0.119  0.000  0.000
-0.000  0.119  0.782  0.000  0.000
-0.000  0.000  0.000  0.814 -0.000
 0.128  0.000  0.000 -0.000  0.758
atom    5   spin  2
eigenvalues:  0.0651534 0.0651829 0.0741554 0.1754157 0.1915865
 eigenvectors
 1  -0.8017368  0.0000000  0.0000000 -0.0009126 -0.5976766
 2  -0.0007315 -0.0000000 -0.0000000  0.9999996 -0.0005457
 3   0.0000000  0.7071782  0.7070354  0.0000000 -0.0000000
 4  -0.0000000 -0.7070354  0.7071782 -0.0000000  0.0000000
 5  -0.5976769  0.0000000 -0.0000000  0.0000003  0.8017371
 occupations
 0.110 -0.000 -0.000 -0.000 -0.061
-0.000  0.125 -0.051  0.000  0.000
-0.000 -0.051  0.125 -0.000  0.000
-0.000  0.000 -0.000  0.065  0.000
-0.061  0.000  0.000  0.000  0.146
atom    6   Tr[ns(na)]=   4.6108897
atom    6   spin  1
eigenvalues:  0.6626786 0.6832708 0.8137049 0.9015935 0.9781479
 eigenvectors
 1   0.0000000  0.7069445 -0.7072690 -0.0000000 -0.0000000
 2  -0.5017876 -0.0000000 -0.0000000 -0.0000049  0.8649909
 3  -0.0000055  0.0000000  0.0000000 -1.0000000 -0.0000089
 4   0.0000000 -0.7072690 -0.7069445 -0.0000000 -0.0000000
 5   0.8649909 -0.0000000  0.0000000 -0.0000093  0.5017876
 occupations
 0.904 -0.000 -0.000 -0.000  0.128
-0.000  0.782  0.119  0.000  0.000
-0.000  0.119  0.782  0.000  0.000
-0.000  0.000  0.000  0.814 -0.000
 0.128  0.000  0.000 -0.000  0.758
atom    6   spin  2
eigenvalues:  0.0651534 0.0651829 0.0741554 0.1754157 0.1915865
 eigenvectors
 1  -0.8017368  0.0000000  0.0000000 -0.0009126 -0.5976766
 2  -0.0007315 -0.0000000 -0.0000000  0.9999996 -0.0005457
 3   0.0000000  0.7071782  0.7070354  0.0000000 -0.0000000
 4  -0.0000000 -0.7070354  0.7071782 -0.0000000  0.0000000
 5  -0.5976769  0.0000000 -0.0000000  0.0000003  0.8017371
 occupations
 0.110 -0.000 -0.000 -0.000 -0.061
-0.000  0.125 -0.051  0.000  0.000
-0.000 -0.051  0.125 -0.000  0.000
-0.000  0.000 -0.000  0.065  0.000
-0.061  0.000  0.000  0.000  0.146
atom    7   Tr[ns(na)]=   4.6114965
atom    7   spin  1
eigenvalues:  0.6632829 0.6833819 0.8137043 0.9016071 0.9780214
 eigenvectors
 1  -0.0000000 -0.7071169  0.7070967  0.0000000  0.0000000
 2  -0.5020018  0.0000000 -0.0000000  0.0000816  0.8648666
 3   0.0000141 -0.0000000 -0.0000000  1.0000000 -0.0000861
 4   0.0000000 -0.7070967 -0.7071169 -0.0000000 -0.0000000
 5   0.8648666 -0.0000000  0.0000000  0.0000310  0.5020018
 occupations
 0.904 -0.000 -0.000  0.000  0.128
-0.000  0.782  0.119  0.000  0.000
-0.000  0.119  0.782  0.000  0.000
 0.000  0.000  0.000  0.814 -0.000
 0.128  0.000  0.000 -0.000  0.758
atom    7   spin  2
eigenvalues:  0.0651456 0.0651845 0.0741518 0.1754182 0.1915986
 eigenvectors
 1  -0.8016598  0.0000000  0.0000000 -0.0027722 -0.5977741
 2  -0.0022205 -0.0000000 -0.0000000  0.9999962 -0.0016597
 3   0.0000000  0.7070310  0.7071825  0.0000000 -0.0000000
 4  -0.0000000 -0.7071825  0.7070310 -0.0000000  0.0000000
 5  -0.5977764  0.0000000 -0.0000000  0.0000031  0.8016629
 occupations
 0.110 -0.000 -0.000 -0.000 -0.061
-0.000  0.125 -0.051  0.000  0.000
-0.000 -0.051  0.125 -0.000  0.000
-0.000  0.000 -0.000  0.065  0.000
-0.061  0.000  0.000  0.000  0.146
atom    8   Tr[ns(na)]=   4.6108897
atom    8   spin  1
eigenvalues:  0.6626786 0.6832708 0.8137049 0.9015935 0.9781479
 eigenvectors
 1   0.0000000  0.7072690 -0.7069445 -0.0000000 -0.0000000
 2   0.5017876  0.0000000  0.0000000 -0.0000049 -0.8649909
 3  -0.0000055 -0.0000000 -0.0000000  1.0000000 -0.0000089
 4   0.0000000 -0.7069445 -0.7072690 -0.0000000 -0.0000000
 5   0.8649909 -0.0000000  0.0000000  0.0000093  0.5017876
 occupations
 0.904 -0.000 -0.000  0.000  0.128
-0.000  0.782  0.119  0.000  0.000
-0.000  0.119  0.782  0.000  0.000
 0.000  0.000  0.000  0.814  0.000
 0.128  0.000  0.000  0.000  0.758
atom    8   spin  2
eigenvalues:  0.0651534 0.0651829 0.0741554 0.1754157 0.1915865
 eigenvectors
 1   0.8017368 -0.0000000 -0.0000000 -0.0009126  0.5976766
 2  -0.0007315  0.0000000  0.0000000 -0.9999996 -0.0005457
 3   0.0000000  0.7070354  0.7071782  0.0000000 -0.0000000
 4  -0.0000000 -0.7071782  0.7070354 -0.0000000  0.0000000
 5  -0.5976769  0.0000000 -0.0000000 -0.0000003  0.8017371
 occupations
 0.110 -0.000 -0.000  0.000 -0.061
-0.000  0.125 -0.051  0.000  0.000
-0.000 -0.051  0.125 -0.000  0.000
 0.000  0.000 -0.000  0.065 -0.000
-0.061  0.000  0.000 -0.000  0.146
atom    9   Tr[ns(na)]=   4.6108897
atom    9   spin  1
eigenvalues:  0.6626786 0.6832708 0.8137049 0.9015935 0.9781479
 eigenvectors
 1   0.0000000  0.7072690 -0.7069445 -0.0000000 -0.0000000
 2   0.5017876  0.0000000  0.0000000 -0.0000049 -0.8649909
 3  -0.0000055 -0.0000000 -0.0000000  1.0000000 -0.0000089
 4   0.0000000 -0.7069445 -0.7072690 -0.0000000 -0.0000000
 5   0.8649909 -0.0000000  0.0000000  0.0000093  0.5017876
 occupations
 0.904 -0.000 -0.000  0.000  0.128
-0.000  0.782  0.119  0.000  0.000
-0.000  0.119  0.782  0.000  0.000
 0.000  0.000  0.000  0.814  0.000
 0.128  0.000  0.000  0.000  0.758
atom    9   spin  2
eigenvalues:  0.0651534 0.0651829 0.0741554 0.1754157 0.1915865
 eigenvectors
 1   0.8017368 -0.0000000 -0.0000000 -0.0009126  0.5976766
 2  -0.0007315  0.0000000  0.0000000 -0.9999996 -0.0005457
 3   0.0000000  0.7070354  0.7071782  0.0000000 -0.0000000
 4  -0.0000000 -0.7071782  0.7070354 -0.0000000  0.0000000
 5  -0.5976769  0.0000000 -0.0000000 -0.0000003  0.8017371
 occupations
 0.110 -0.000 -0.000  0.000 -0.061
-0.000  0.125 -0.051  0.000  0.000
-0.000 -0.051  0.125 -0.000  0.000
 0.000  0.000 -0.000  0.065 -0.000
-0.061  0.000  0.000 -0.000  0.146
atom   10   Tr[ns(na)]=   4.6113590
atom   10   spin  1
eigenvalues:  0.6632525 0.6832398 0.8137048 0.9016237 0.9780649
 eigenvectors
 1   0.0000000  0.7071068 -0.7071068 -0.0000000 -0.0000000
 2  -0.5020401  0.0000000 -0.0000000  0.0000000  0.8648444
 3   0.0000000 -0.0000000 -0.0000000  1.0000000 -0.0000000
 4   0.0000000 -0.7071068 -0.7071068 -0.0000000 -0.0000000
 5   0.8648444 -0.0000000  0.0000000 -0.0000000  0.5020401
 occupations
 0.904 -0.000 -0.000  0.000  0.128
-0.000  0.782  0.119  0.000  0.000
-0.000  0.119  0.782  0.000  0.000
 0.000  0.000  0.000  0.814 -0.000
 0.128  0.000  0.000 -0.000  0.758
atom   10   spin  2
eigenvalues:  0.0651446 0.0651843 0.0741519 0.1754074 0.1915852
 eigenvectors
 1   0.8016553 -0.0000000 -0.0000000  0.0000000  0.5977865
 2   0.0000000  0.0000000  0.0000000 -1.0000000  0.0000000
 3  -0.0000000 -0.7071068 -0.7071068 -0.0000000  0.0000000
 4  -0.0000000 -0.7071068  0.7071068 -0.0000000  0.0000000
 5  -0.5977865  0.0000000 -0.0000000 -0.0000000  0.8016553
 occupations
 0.110 -0.000 -0.000  0.000 -0.061
-0.000  0.125 -0.051  0.000  0.000
-0.000 -0.051  0.125 -0.000  0.000
 0.000  0.000 -0.000  0.065 -0.000
-0.061  0.000  0.000 -0.000  0.146
atom   11   Tr[ns(na)]=   4.6106393
atom   11   spin  1
eigenvalues:  0.6624918 0.6832048 0.8137047 0.9016049 0.9781589
 eigenvectors
 1  -0.0000000 -0.7071068  0.7071068  0.0000000  0.0000000
 2  -0.5018107 -0.0000000 -0.0000000  0.0000000  0.8649775
 3  -0.0000000  0.0000000  0.0000000 -1.0000000  0.0000000
 4   0.0000000 -0.7071068 -0.7071068 -0.0000000 -0.0000000
 5   0.8649775 -0.0000000  0.0000000 -0.0000000  0.5018107
 occupations
 0.904 -0.000 -0.000  0.000  0.128
-0.000  0.782  0.120  0.000  0.000
-0.000  0.120  0.782  0.000  0.000
 0.000  0.000  0.000  0.814 -0.000
 0.128  0.000  0.000 -0.000  0.757
atom   11   spin  2
eigenvalues:  0.0651525 0.0651805 0.0741555 0.1754057 0.1915800
 eigenvectors
 1   0.8017289 -0.0000000 -0.0000000  0.0000000  0.5976879
 2   0.0000000  0.0000000  0.0000000 -1.0000000  0.0000000
 3  -0.0000000 -0.7071068 -0.7071068 -0.0000000  0.0000000
 4  -0.0000000 -0.7071068  0.7071068 -0.0000000  0.0000000
 5  -0.5976879  0.0000000 -0.0000000 -0.0000000  0.8017289
 occupations
 0.110 -0.000 -0.000  0.000 -0.061
-0.000  0.125 -0.051  0.000  0.000
-0.000 -0.051  0.125 -0.000  0.000
 0.000  0.000 -0.000  0.065 -0.000
-0.061  0.000  0.000 -0.000  0.146
atom   12   Tr[ns(na)]=   4.6106393
atom   12   spin  1
eigenvalues:  0.6624918 0.6832048 0.8137047 0.9016049 0.9781589
 eigenvectors
 1  -0.0000000 -0.7071068  0.7071068  0.0000000  0.0000000
 2  -0.5018107 -0.0000000 -0.0000000  0.0000000  0.8649775
 3  -0.0000000  0.0000000  0.0000000 -1.0000000  0.0000000
 4   0.0000000 -0.7071068 -0.7071068 -0.0000000 -0.0000000
 5   0.8649775 -0.0000000  0.0000000 -0.0000000  0.5018107
 occupations
 0.904 -0.000 -0.000  0.000  0.128
-0.000  0.782  0.120  0.000  0.000
-0.000  0.120  0.782  0.000  0.000
 0.000  0.000  0.000  0.814 -0.000
 0.128  0.000  0.000 -0.000  0.757
atom   12   spin  2
eigenvalues:  0.0651525 0.0651805 0.0741555 0.1754057 0.1915800
 eigenvectors
 1   0.8017289 -0.0000000 -0.0000000  0.0000000  0.5976879
 2   0.0000000  0.0000000  0.0000000 -1.0000000  0.0000000
 3  -0.0000000 -0.7071068 -0.7071068 -0.0000000  0.0000000
 4  -0.0000000 -0.7071068  0.7071068 -0.0000000  0.0000000
 5  -0.5976879  0.0000000 -0.0000000 -0.0000000  0.8017289
 occupations
 0.110 -0.000 -0.000  0.000 -0.061
-0.000  0.125 -0.051  0.000  0.000
-0.000 -0.051  0.125 -0.000  0.000
 0.000  0.000 -0.000  0.065 -0.000
-0.061  0.000  0.000 -0.000  0.146
atom   13   Tr[ns(na)]=   4.6104721
atom   13   spin  1
eigenvalues:  0.6623731 0.6832849 0.8137002 0.9016300 0.9780898
 eigenvectors
 1   0.0001320 -0.7071068 -0.7071068  0.0000000  0.0002295
 2   0.5019170  0.0001872  0.0001872  0.0000000  0.8649158
 3  -0.0000000 -0.0000108  0.0000108  1.0000000 -0.0000000
 4  -0.0000000 -0.7071068  0.7071068 -0.0000152  0.0000000
 5  -0.8649158  0.0000007  0.0000007 -0.0000000  0.5019170
 occupations
 0.904  0.000  0.000  0.000 -0.128
 0.000  0.782 -0.120  0.000  0.000
 0.000 -0.120  0.782 -0.000  0.000
 0.000  0.000 -0.000  0.814 -0.000
-0.128  0.000  0.000 -0.000  0.758
atom   13   spin  2
eigenvalues:  0.0651572 0.0651805 0.0741677 0.1752728 0.1916158
 eigenvectors
 1  -0.8016569 -0.0000027 -0.0000027  0.0000000  0.5977844
 2   0.0000000 -0.0000487  0.0000487  1.0000000 -0.0000000
 3  -0.0000000  0.7071068 -0.7071068  0.0000689  0.0000000
 4  -0.0000133 -0.7071068 -0.7071068 -0.0000000 -0.0000242
 5   0.5977844 -0.0000193 -0.0000193 -0.0000000  0.8016569
 occupations
 0.110 -0.000 -0.000 -0.000  0.061
-0.000  0.125  0.051  0.000 -0.000
-0.000  0.051  0.125 -0.000 -0.000
-0.000  0.000 -0.000  0.065 -0.000
 0.061 -0.000 -0.000 -0.000  0.146
atom   14   Tr[ns(na)]=   4.6100689
atom   14   spin  1
eigenvalues:  0.6618775 0.6832999 0.8137042 0.9016387 0.9781405
 eigenvectors
 1   0.0000000 -0.7071068 -0.7071068  0.0000000  0.0000000
 2   0.5015980  0.0000000  0.0000000  0.0000000  0.8651009
 3  -0.0000000 -0.0000000  0.0000000  1.0000000  0.0000000
 4  -0.0000000 -0.7071068  0.7071068 -0.0000000  0.0000000
 5  -0.8651009  0.0000000 -0.0000000 -0.0000000  0.5015980
 occupations
 0.904 -0.000 -0.000  0.000 -0.128
-0.000  0.782 -0.120  0.000  0.000
-0.000 -0.120  0.782  0.000  0.000
 0.000  0.000  0.000  0.814 -0.000
-0.128  0.000  0.000 -0.000  0.757
atom   14   spin  2
eigenvalues:  0.0651568 0.0651791 0.0741695 0.1752947 0.1916081
 eigenvectors
 1  -0.8016692 -0.0000000  0.0000000  0.0000000  0.5977679
 2   0.0000000 -0.0000000  0.0000000  1.0000000 -0.0000000
 3  -0.0000000  0.7071068 -0.7071068  0.0000000  0.0000000
 4   0.0000000 -0.7071068 -0.7071068 -0.0000000  0.0000000
 5   0.5977679  0.0000000  0.0000000 -0.0000000  0.8016692
 occupations
 0.110 -0.000 -0.000 -0.000  0.061
-0.000  0.125  0.051  0.000  0.000
-0.000  0.051  0.125  0.000  0.000
-0.000  0.000  0.000  0.065 -0.000
 0.061  0.000  0.000 -0.000  0.146
atom   15   Tr[ns(na)]=   4.6104721
atom   15   spin  1
eigenvalues:  0.6623731 0.6832849 0.8137002 0.9016300 0.9780898
 eigenvectors
 1  -0.0001320 -0.7071068 -0.7071068  0.0000000 -0.0002295
 2   0.5019170 -0.0001872 -0.0001872  0.0000000  0.8649158
 3  -0.0000000  0.0000108 -0.0000108  1.0000000 -0.0000000
 4  -0.0000000 -0.7071068  0.7071068  0.0000152  0.0000000
 5  -0.8649158 -0.0000007 -0.0000007 -0.0000000  0.5019170
 occupations
 0.904 -0.000 -0.000  0.000 -0.128
-0.000  0.782 -0.120 -0.000 -0.000
-0.000 -0.120  0.782  0.000 -0.000
 0.000 -0.000  0.000  0.814 -0.000
-0.128 -0.000 -0.000 -0.000  0.758
atom   15   spin  2
eigenvalues:  0.0651572 0.0651805 0.0741677 0.1752728 0.1916158
 eigenvectors
 1  -0.8016569  0.0000027  0.0000027  0.0000000  0.5977844
 2   0.0000000  0.0000487 -0.0000487  1.0000000 -0.0000000
 3  -0.0000000  0.7071068 -0.7071068 -0.0000689  0.0000000
 4   0.0000133 -0.7071068 -0.7071068 -0.0000000  0.0000242
 5   0.5977844  0.0000193  0.0000193 -0.0000000  0.8016569
 occupations
 0.110  0.000  0.000 -0.000  0.061
 0.000  0.125  0.051 -0.000  0.000
 0.000  0.051  0.125  0.000  0.000
-0.000 -0.000  0.000  0.065 -0.000
 0.061  0.000  0.000 -0.000  0.146
atom   16   Tr[ns(na)]=   4.6104736
atom   16   spin  1
eigenvalues:  0.6623743 0.6832849 0.8137002 0.9016301 0.9780898
 eigenvectors
 1  -0.0000000  0.7071068  0.7071068  0.0000066 -0.0000000
 2   0.5019170  0.0001007 -0.0001007  0.0000000  0.8649158
 3  -0.0000000 -0.0000047 -0.0000047  1.0000000 -0.0000000
 4  -0.0000785  0.7071068 -0.7071068  0.0000000 -0.0001191
 5  -0.8649158 -0.0000058  0.0000058 -0.0000000  0.5019170
 occupations
 0.904 -0.000  0.000  0.000 -0.128
-0.000  0.782 -0.120 -0.000 -0.000
 0.000 -0.120  0.782 -0.000  0.000
 0.000 -0.000 -0.000  0.814 -0.000
-0.128 -0.000  0.000 -0.000  0.758
atom   16   spin  2
eigenvalues:  0.0651572 0.0651799 0.0741679 0.1752732 0.1916161
 eigenvectors
 1  -0.8016585 -0.0000113  0.0000113  0.0000000  0.5977823
 2   0.0000000 -0.0000007 -0.0000007  1.0000000 -0.0000000
 3  -0.0000120  0.7071068 -0.7071068  0.0000000  0.0000108
 4   0.0000000 -0.7071068 -0.7071068 -0.0000011  0.0000000
 5   0.5977823 -0.0000010  0.0000010 -0.0000000  0.8016585
 occupations
 0.110 -0.000  0.000 -0.000  0.061
-0.000  0.125  0.051  0.000 -0.000
 0.000  0.051  0.125  0.000  0.000
-0.000  0.000  0.000  0.065 -0.000
 0.061 -0.000  0.000 -0.000  0.146
atom   17   Tr[ns(na)]=   4.6100710
atom   17   spin  1
eigenvalues:  0.6618805 0.6832999 0.8137042 0.9016387 0.9781405
 eigenvectors
 1   0.0000000 -0.7071068 -0.7071068  0.0000000  0.0000000
 2   0.5015980  0.0000000  0.0000000  0.0000000  0.8651009
 3  -0.0000000 -0.0000000  0.0000000  1.0000000 -0.0000000
 4  -0.0000000 -0.7071068  0.7071068 -0.0000000  0.0000000
 5  -0.8651009  0.0000000 -0.0000000 -0.0000000  0.5015980
 occupations
 0.904 -0.000 -0.000  0.000 -0.128
-0.000  0.782 -0.120  0.000  0.000
-0.000 -0.120  0.782  0.000  0.000
 0.000  0.000  0.000  0.814 -0.000
-0.128  0.000  0.000 -0.000  0.757
atom   17   spin  2
eigenvalues:  0.0651565 0.0651782 0.0741695 0.1752948 0.1916080
 eigenvectors
 1  -0.8016682 -0.0000000  0.0000000  0.0000000  0.5977693
 2   0.0000000 -0.0000000  0.0000000  1.0000000 -0.0000000
 3  -0.0000000  0.7071068 -0.7071068  0.0000000  0.0000000
 4   0.0000000 -0.7071068 -0.7071068 -0.0000000  0.0000000
 5   0.5977693  0.0000000  0.0000000 -0.0000000  0.8016682
 occupations
 0.110 -0.000 -0.000 -0.000  0.061
-0.000  0.125  0.051  0.000  0.000
-0.000  0.051  0.125  0.000  0.000
-0.000  0.000  0.000  0.065 -0.000
 0.061  0.000  0.000 -0.000  0.146
atom   18   Tr[ns(na)]=   4.6104736
atom   18   spin  1
eigenvalues:  0.6623743 0.6832849 0.8137002 0.9016301 0.9780898
 eigenvectors
 1  -0.0000000  0.7071068  0.7071068 -0.0000066 -0.0000000
 2   0.5019170 -0.0001007  0.0001007  0.0000000  0.8649158
 3  -0.0000000  0.0000047  0.0000047  1.0000000 -0.0000000
 4   0.0000785  0.7071068 -0.7071068  0.0000000  0.0001191
 5  -0.8649158  0.0000058 -0.0000058 -0.0000000  0.5019170
 occupations
 0.904  0.000 -0.000  0.000 -0.128
 0.000  0.782 -0.120  0.000  0.000
-0.000 -0.120  0.782  0.000 -0.000
 0.000  0.000  0.000  0.814 -0.000
-0.128  0.000 -0.000 -0.000  0.758
atom   18   spin  2
eigenvalues:  0.0651572 0.0651799 0.0741679 0.1752732 0.1916161
 eigenvectors
 1  -0.8016585  0.0000113 -0.0000113  0.0000000  0.5977823
 2   0.0000000  0.0000007  0.0000007  1.0000000 -0.0000000
 3   0.0000120  0.7071068 -0.7071068  0.0000000 -0.0000108
 4   0.0000000 -0.7071068 -0.7071068  0.0000011  0.0000000
 5   0.5977823  0.0000010 -0.0000010 -0.0000000  0.8016585
 occupations
 0.110  0.000 -0.000 -0.000  0.061
 0.000  0.125  0.051 -0.000  0.000
-0.000  0.051  0.125 -0.000 -0.000
-0.000 -0.000 -0.000  0.065 -0.000
 0.061  0.000 -0.000 -0.000  0.146
atom   19   Tr[ns(na)]=   4.6104736
atom   19   spin  1
eigenvalues:  0.6623743 0.6832849 0.8137002 0.9016301 0.9780898
 eigenvectors
 1  -0.0000000  0.7071068  0.7071068 -0.0000066 -0.0000000
 2   0.5019170 -0.0001007  0.0001007  0.0000000  0.8649158
 3  -0.0000000  0.0000047  0.0000047  1.0000000 -0.0000000
 4   0.0000785  0.7071068 -0.7071068  0.0000000  0.0001191
 5  -0.8649158  0.0000058 -0.0000058 -0.0000000  0.5019170
 occupations
 0.904  0.000 -0.000  0.000 -0.128
 0.000  0.782 -0.120  0.000  0.000
-0.000 -0.120  0.782  0.000 -0.000
 0.000  0.000  0.000  0.814 -0.000
-0.128  0.000 -0.000 -0.000  0.758
atom   19   spin  2
eigenvalues:  0.0651572 0.0651799 0.0741679 0.1752732 0.1916161
 eigenvectors
 1  -0.8016585  0.0000113 -0.0000113  0.0000000  0.5977823
 2   0.0000000  0.0000007  0.0000007  1.0000000 -0.0000000
 3   0.0000120  0.7071068 -0.7071068  0.0000000 -0.0000108
 4   0.0000000 -0.7071068 -0.7071068  0.0000011  0.0000000
 5   0.5977823  0.0000010 -0.0000010 -0.0000000  0.8016585
 occupations
 0.110  0.000 -0.000 -0.000  0.061
 0.000  0.125  0.051 -0.000  0.000
-0.000  0.051  0.125 -0.000 -0.000
-0.000 -0.000 -0.000  0.065 -0.000
 0.061  0.000 -0.000 -0.000  0.146
atom   20   Tr[ns(na)]=   4.6100710
atom   20   spin  1
eigenvalues:  0.6618805 0.6832999 0.8137042 0.9016387 0.9781405
 eigenvectors
 1   0.0000000 -0.7071068 -0.7071068  0.0000000  0.0000000
 2   0.5015980  0.0000000  0.0000000  0.0000000  0.8651009
 3  -0.0000000 -0.0000000  0.0000000  1.0000000 -0.0000000
 4  -0.0000000 -0.7071068  0.7071068 -0.0000000  0.0000000
 5  -0.8651009  0.0000000 -0.0000000 -0.0000000  0.5015980
 occupations
 0.904 -0.000 -0.000  0.000 -0.128
-0.000  0.782 -0.120  0.000  0.000
-0.000 -0.120  0.782  0.000  0.000
 0.000  0.000  0.000  0.814 -0.000
-0.128  0.000  0.000 -0.000  0.757
atom   20   spin  2
eigenvalues:  0.0651565 0.0651782 0.0741695 0.1752948 0.1916080
 eigenvectors
 1  -0.8016682 -0.0000000  0.0000000  0.0000000  0.5977693
 2   0.0000000 -0.0000000  0.0000000  1.0000000 -0.0000000
 3  -0.0000000  0.7071068 -0.7071068  0.0000000  0.0000000
 4   0.0000000 -0.7071068 -0.7071068 -0.0000000  0.0000000
 5   0.5977693  0.0000000  0.0000000 -0.0000000  0.8016682
 occupations
 0.110 -0.000 -0.000 -0.000  0.061
-0.000  0.125  0.051  0.000  0.000
-0.000  0.051  0.125  0.000  0.000
-0.000  0.000  0.000  0.065 -0.000
 0.061  0.000  0.000 -0.000  0.146
atom   21   Tr[ns(na)]=   4.6104736
atom   21   spin  1
eigenvalues:  0.6623743 0.6832849 0.8137002 0.9016301 0.9780898
 eigenvectors
 1  -0.0000000  0.7071068  0.7071068  0.0000066 -0.0000000
 2   0.5019170  0.0001007 -0.0001007  0.0000000  0.8649158
 3  -0.0000000 -0.0000047 -0.0000047  1.0000000 -0.0000000
 4  -0.0000785  0.7071068 -0.7071068  0.0000000 -0.0001191
 5  -0.8649158 -0.0000058  0.0000058 -0.0000000  0.5019170
 occupations
 0.904 -0.000  0.000  0.000 -0.128
-0.000  0.782 -0.120 -0.000 -0.000
 0.000 -0.120  0.782 -0.000  0.000
 0.000 -0.000 -0.000  0.814 -0.000
-0.128 -0.000  0.000 -0.000  0.758
atom   21   spin  2
eigenvalues:  0.0651572 0.0651799 0.0741679 0.1752732 0.1916161
 eigenvectors
 1  -0.8016585 -0.0000113  0.0000113  0.0000000  0.5977823
 2   0.0000000 -0.0000007 -0.0000007  1.0000000 -0.0000000
 3  -0.0000120  0.7071068 -0.7071068  0.0000000  0.0000108
 4   0.0000000 -0.7071068 -0.7071068 -0.0000011  0.0000000
 5   0.5977823 -0.0000010  0.0000010 -0.0000000  0.8016585
 occupations
 0.110 -0.000  0.000 -0.000  0.061
-0.000  0.125  0.051  0.000 -0.000
 0.000  0.051  0.125  0.000  0.000
-0.000  0.000  0.000  0.065 -0.000
 0.061 -0.000  0.000 -0.000  0.146
atom   22   Tr[ns(na)]=   4.6104721
atom   22   spin  1
eigenvalues:  0.6623731 0.6832849 0.8137002 0.9016300 0.9780898
 eigenvectors
 1  -0.0001320 -0.7071068 -0.7071068  0.0000000 -0.0002295
 2   0.5019170 -0.0001872 -0.0001872  0.0000000  0.8649158
 3  -0.0000000  0.0000108 -0.0000108  1.0000000 -0.0000000
 4  -0.0000000 -0.7071068  0.7071068  0.0000152  0.0000000
 5  -0.8649158 -0.0000007 -0.0000007 -0.0000000  0.5019170
 occupations
 0.904 -0.000 -0.000  0.000 -0.128
-0.000  0.782 -0.120 -0.000 -0.000
-0.000 -0.120  0.782  0.000 -0.000
 0.000 -0.000  0.000  0.814 -0.000
-0.128 -0.000 -0.000 -0.000  0.758
atom   22   spin  2
eigenvalues:  0.0651572 0.0651805 0.0741677 0.1752728 0.1916158
 eigenvectors
 1  -0.8016569  0.0000027  0.0000027  0.0000000  0.5977844
 2   0.0000000  0.0000487 -0.0000487  1.0000000 -0.0000000
 3  -0.0000000  0.7071068 -0.7071068 -0.0000689  0.0000000
 4   0.0000133 -0.7071068 -0.7071068 -0.0000000  0.0000242
 5   0.5977844  0.0000193  0.0000193 -0.0000000  0.8016569
 occupations
 0.110  0.000  0.000 -0.000  0.061
 0.000  0.125  0.051 -0.000  0.000
 0.000  0.051  0.125  0.000  0.000
-0.000 -0.000  0.000  0.065 -0.000
 0.061  0.000  0.000 -0.000  0.146
atom   23   Tr[ns(na)]=   4.6100689
atom   23   spin  1
eigenvalues:  0.6618775 0.6832999 0.8137042 0.9016387 0.9781405
 eigenvectors
 1   0.0000000 -0.7071068 -0.7071068  0.0000000  0.0000000
 2   0.5015980  0.0000000  0.0000000  0.0000000  0.8651009
 3  -0.0000000 -0.0000000  0.0000000  1.0000000 -0.0000000
 4  -0.0000000 -0.7071068  0.7071068 -0.0000000  0.0000000
 5  -0.8651009  0.0000000 -0.0000000 -0.0000000  0.5015980
 occupations
 0.904 -0.000 -0.000  0.000 -0.128
-0.000  0.782 -0.120  0.000  0.000
-0.000 -0.120  0.782  0.000  0.000
 0.000  0.000  0.000  0.814 -0.000
-0.128  0.000  0.000 -0.000  0.757
atom   23   spin  2
eigenvalues:  0.0651568 0.0651791 0.0741695 0.1752947 0.1916081
 eigenvectors
 1  -0.8016692 -0.0000000  0.0000000  0.0000000  0.5977679
 2   0.0000000 -0.0000000  0.0000000  1.0000000 -0.0000000
 3  -0.0000000  0.7071068 -0.7071068  0.0000000  0.0000000
 4   0.0000000 -0.7071068 -0.7071068 -0.0000000  0.0000000
 5   0.5977679  0.0000000  0.0000000 -0.0000000  0.8016692
 occupations
 0.110 -0.000 -0.000 -0.000  0.061
-0.000  0.125  0.051  0.000  0.000
-0.000  0.051  0.125  0.000  0.000
-0.000  0.000  0.000  0.065 -0.000
 0.061  0.000  0.000 -0.000  0.146
atom   24   Tr[ns(na)]=   4.6104721
atom   24   spin  1
eigenvalues:  0.6623731 0.6832849 0.8137002 0.9016300 0.9780898
 eigenvectors
 1   0.0001320 -0.7071068 -0.7071068  0.0000000  0.0002295
 2   0.5019170  0.0001872  0.0001872  0.0000000  0.8649158
 3  -0.0000000 -0.0000108  0.0000108  1.0000000 -0.0000000
 4  -0.0000000 -0.7071068  0.7071068 -0.0000152  0.0000000
 5  -0.8649158  0.0000007  0.0000007 -0.0000000  0.5019170
 occupations
 0.904  0.000  0.000  0.000 -0.128
 0.000  0.782 -0.120  0.000  0.000
 0.000 -0.120  0.782 -0.000  0.000
 0.000  0.000 -0.000  0.814 -0.000
-0.128  0.000  0.000 -0.000  0.758
atom   24   spin  2
eigenvalues:  0.0651572 0.0651805 0.0741677 0.1752728 0.1916158
 eigenvectors
 1  -0.8016569 -0.0000027 -0.0000027  0.0000000  0.5977844
 2   0.0000000 -0.0000487  0.0000487  1.0000000 -0.0000000
 3  -0.0000000  0.7071068 -0.7071068  0.0000689  0.0000000
 4  -0.0000133 -0.7071068 -0.7071068 -0.0000000 -0.0000242
 5   0.5977844 -0.0000193 -0.0000193 -0.0000000  0.8016569
 occupations
 0.110 -0.000 -0.000 -0.000  0.061
-0.000  0.125  0.051  0.000 -0.000
-0.000  0.051  0.125 -0.000 -0.000
-0.000  0.000 -0.000  0.065 -0.000
 0.061 -0.000 -0.000 -0.000  0.146
nsum = 110.6571561
 exit write_ns

     negative rho (up, down):  0.000E+00 0.573E-03

     total cpu time spent up to now is    183.06 secs

     total energy              =   -5673.87930507 Ry
     Harris-Foulkes estimate   =   -5585.51721665 Ry
     estimated scf accuracy    <      65.82734556 Ry

     total magnetization       =    51.92 Bohr mag/cell
     absolute magnetization    =   112.80 Bohr mag/cell

     iteration #  2     ecut=    30.00 Ry     beta=0.30
     Davidson diagonalization with overlap
     ethr =  1.00E-02,  avg # of iterations =  2.1

     negative rho (up, down):  0.000E+00 0.295E-02

     total cpu time spent up to now is    272.72 secs

     total energy              =   -5703.92980710 Ry
     Harris-Foulkes estimate   =   -5678.64992653 Ry
     estimated scf accuracy    <      34.32778363 Ry

     total magnetization       =    48.30 Bohr mag/cell
     absolute magnetization    =   109.57 Bohr mag/cell

     iteration #  3     ecut=    30.00 Ry     beta=0.30
     Davidson diagonalization with overlap
     ethr =  5.50E-03,  avg # of iterations =  2.2

     negative rho (up, down):  0.000E+00 0.115E-02

     total cpu time spent up to now is    363.88 secs

     total energy              =   -5706.92760599 Ry
     Harris-Foulkes estimate   =   -5706.61080513 Ry
     estimated scf accuracy    <       1.51264977 Ry

     total magnetization       =    48.00 Bohr mag/cell
     absolute magnetization    =    96.31 Bohr mag/cell

     iteration #  4     ecut=    30.00 Ry     beta=0.30
     Davidson diagonalization with overlap
     ethr =  2.42E-04,  avg # of iterations =  3.3

     total cpu time spent up to now is    459.63 secs

     total energy              =   -5707.32406836 Ry
     Harris-Foulkes estimate   =   -5707.05695279 Ry
     estimated scf accuracy    <       0.53793873 Ry

     total magnetization       =    48.00 Bohr mag/cell
     absolute magnetization    =    90.88 Bohr mag/cell

     iteration #  5     ecut=    30.00 Ry     beta=0.30
     Davidson diagonalization with overlap
     ethr =  8.62E-05,  avg # of iterations =  4.0

     total cpu time spent up to now is    566.41 secs

     total energy              =   -5707.47952409 Ry
     Harris-Foulkes estimate   =   -5707.41541899 Ry
     estimated scf accuracy    <       0.15662648 Ry

     total magnetization       =    48.00 Bohr mag/cell
     absolute magnetization    =    83.76 Bohr mag/cell

     iteration #  6     ecut=    30.00 Ry     beta=0.30
     Davidson diagonalization with overlap
     ethr =  2.51E-05,  avg # of iterations =  3.6

     total cpu time spent up to now is    697.01 secs

     total energy              =   -5707.53772776 Ry
     Harris-Foulkes estimate   =   -5707.53086308 Ry
     estimated scf accuracy    <       0.01647335 Ry

     total magnetization       =    48.00 Bohr mag/cell
     absolute magnetization    =    79.75 Bohr mag/cell

     iteration #  7     ecut=    30.00 Ry     beta=0.30
     Davidson diagonalization with overlap
     ethr =  2.64E-06,  avg # of iterations =  2.9

     total cpu time spent up to now is    802.59 secs

     total energy              =   -5707.54482594 Ry
     Harris-Foulkes estimate   =   -5707.54185381 Ry
     estimated scf accuracy    <       0.00677340 Ry

     total magnetization       =    48.00 Bohr mag/cell
     absolute magnetization    =    78.49 Bohr mag/cell

     iteration #  8     ecut=    30.00 Ry     beta=0.30
     Davidson diagonalization with overlap
     ethr =  1.09E-06,  avg # of iterations =  2.8

     total cpu time spent up to now is    903.48 secs

     total energy              =   -5707.54851874 Ry
     Harris-Foulkes estimate   =   -5707.54742615 Ry
     estimated scf accuracy    <       0.00053451 Ry

     total magnetization       =    48.00 Bohr mag/cell
     absolute magnetization    =    77.51 Bohr mag/cell

     iteration #  9     ecut=    30.00 Ry     beta=0.30
     Davidson diagonalization with overlap
     ethr =  8.57E-08,  avg # of iterations =  3.3

     total cpu time spent up to now is   1028.69 secs

     total energy              =   -5707.54950883 Ry
     Harris-Foulkes estimate   =   -5707.54909214 Ry
     estimated scf accuracy    <       0.00011359 Ry

     total magnetization       =    48.00 Bohr mag/cell
     absolute magnetization    =    76.89 Bohr mag/cell

     iteration # 10     ecut=    30.00 Ry     beta=0.30
     Davidson diagonalization with overlap
     ethr =  1.82E-08,  avg # of iterations =  3.2

     total cpu time spent up to now is   1154.58 secs

     total energy              =   -5707.54985660 Ry
     Harris-Foulkes estimate   =   -5707.54961842 Ry
     estimated scf accuracy    <       0.00006106 Ry

     total magnetization       =    48.00 Bohr mag/cell
     absolute magnetization    =    76.64 Bohr mag/cell

     iteration # 11     ecut=    30.00 Ry     beta=0.30
     Davidson diagonalization with overlap
     ethr =  9.78E-09,  avg # of iterations =  2.0

     total cpu time spent up to now is   1233.47 secs

     total energy              =   -5707.54997726 Ry
     Harris-Foulkes estimate   =   -5707.54986229 Ry
     estimated scf accuracy    <       0.00001343 Ry

     total magnetization       =    48.00 Bohr mag/cell
     absolute magnetization    =    76.64 Bohr mag/cell

     iteration # 12     ecut=    30.00 Ry     beta=0.30
     Davidson diagonalization with overlap
     ethr =  2.15E-09,  avg # of iterations =  3.0

     total cpu time spent up to now is   1331.09 secs

     total energy              =   -5707.55003576 Ry
     Harris-Foulkes estimate   =   -5707.54997992 Ry
     estimated scf accuracy    <       0.00000271 Ry

     total magnetization       =    48.00 Bohr mag/cell
     absolute magnetization    =    76.66 Bohr mag/cell

     iteration # 13     ecut=    30.00 Ry     beta=0.30
     Davidson diagonalization with overlap
     ethr =  4.34E-10,  avg # of iterations =  3.0

     total cpu time spent up to now is   1437.97 secs

     total energy              =   -5707.55006405 Ry
     Harris-Foulkes estimate   =   -5707.55003693 Ry
     estimated scf accuracy    <       0.00000014 Ry

     total magnetization       =    48.00 Bohr mag/cell
     absolute magnetization    =    76.68 Bohr mag/cell

     iteration # 14     ecut=    30.00 Ry     beta=0.30
     Davidson diagonalization with overlap
     ethr =  2.17E-11,  avg # of iterations =  2.5

     total cpu time spent up to now is   1531.44 secs

     total energy              =   -5707.55007746 Ry
     Harris-Foulkes estimate   =   -5707.55006408 Ry
     estimated scf accuracy    <       0.00000004 Ry

     total magnetization       =    48.00 Bohr mag/cell
     absolute magnetization    =    76.68 Bohr mag/cell

     iteration # 15     ecut=    30.00 Ry     beta=0.30
     Davidson diagonalization with overlap
     ethr =  6.75E-12,  avg # of iterations =  3.0

     total cpu time spent up to now is   1631.43 secs

     total energy              =   -5707.55008405 Ry
     Harris-Foulkes estimate   =   -5707.55007747 Ry
     estimated scf accuracy    <       0.00000001 Ry

     total magnetization       =    48.00 Bohr mag/cell
     absolute magnetization    =    76.68 Bohr mag/cell

     iteration # 16     ecut=    30.00 Ry     beta=0.30
     Davidson diagonalization with overlap
     ethr =  1.60E-12,  avg # of iterations =  3.0

     total cpu time spent up to now is   1736.77 secs

     End of self-consistent calculation
 enter write_ns
U( 1) =  3.5000      U( 2) =  0.0000
alpha( 1) =  0.0000      alpha( 2) =  0.0000
atom    1   Tr[ns(na)]=   5.0997163
atom    1   spin  1
eigenvalues:  0.5542473 0.5895538 0.7675219 0.9055787 0.9883541
 eigenvectors
 1  -0.0000000 -0.7071068  0.7071068  0.0000000  0.0000000
 2  -0.5424756 -0.0000000 -0.0000000  0.0000000  0.8400715
 3   0.0000000 -0.0000000 -0.0000000  1.0000000 -0.0000000
 4   0.0000000 -0.7071068 -0.7071068 -0.0000000 -0.0000000
 5   0.8400715  0.0000000  0.0000000 -0.0000000  0.5424756
 occupations
 0.871 -0.000 -0.000  0.000  0.182
-0.000  0.730  0.176  0.000  0.000
-0.000  0.176  0.730  0.000  0.000
 0.000  0.000  0.000  0.768 -0.000
 0.182  0.000  0.000 -0.000  0.707
atom    1   spin  2
eigenvalues:  0.1297387 0.1676307 0.1715782 0.4063778 0.4191351
 eigenvectors
 1   0.8306757  0.0000000 -0.0000000  0.0000000  0.5567565
 2   0.0000000  0.7071068  0.7071068 -0.0000000 -0.0000000
 3  -0.0000000  0.0000000  0.0000000  1.0000000  0.0000000
 4  -0.0000000 -0.7071068  0.7071068 -0.0000000  0.0000000
 5  -0.5567565  0.0000000 -0.0000000 -0.0000000  0.8306757
 occupations
 0.219 -0.000 -0.000  0.000 -0.134
-0.000  0.287 -0.119  0.000  0.000
-0.000 -0.119  0.287 -0.000  0.000
 0.000  0.000 -0.000  0.172 -0.000
-0.134  0.000  0.000 -0.000  0.329
atom    2   Tr[ns(na)]=   5.0997134
atom    2   spin  1
eigenvalues:  0.5542471 0.5895536 0.7675211 0.9055782 0.9883541
 eigenvectors
 1  -0.0000000 -0.7071068  0.7071068  0.0000000  0.0000000
 2  -0.5424757 -0.0000000 -0.0000000  0.0000000  0.8400715
 3   0.0000000 -0.0000000 -0.0000000  1.0000000 -0.0000000
 4   0.0000000 -0.7071068 -0.7071068 -0.0000000 -0.0000000
 5   0.8400715  0.0000000  0.0000000 -0.0000000  0.5424757
 occupations
 0.871 -0.000 -0.000  0.000  0.182
-0.000  0.730  0.176  0.000  0.000
-0.000  0.176  0.730  0.000  0.000
 0.000  0.000  0.000  0.768 -0.000
 0.182  0.000  0.000 -0.000  0.707
atom    2   spin  2
eigenvalues:  0.1297386 0.1676305 0.1715781 0.4063775 0.4191348
 eigenvectors
 1   0.8306757  0.0000000 -0.0000000  0.0000000  0.5567566
 2  -0.0000000 -0.7071068 -0.7071068  0.0000000  0.0000000
 3   0.0000000 -0.0000000 -0.0000000 -1.0000000 -0.0000000
 4  -0.0000000 -0.7071068  0.7071068 -0.0000000  0.0000000
 5  -0.5567566  0.0000000 -0.0000000 -0.0000000  0.8306757
 occupations
[...]
    14.0280  14.0280  14.0280  14.0280  14.1108  14.1108  14.1108  14.1108
    14.1470  14.1470  14.1470  14.1470  14.3561  14.3561  14.3561  14.3561
    14.3561  14.3561  14.3561  14.3561  14.4386  14.4386  14.4386  14.4386
    14.4491  14.4491  14.4491  14.4491  14.6527  14.6527  14.6527  14.6527
    14.7152  14.7152  14.7152  14.7152  14.7454  14.7454  14.7454  14.7454
    14.9872  14.9872  14.9872  14.9872  14.9927  14.9927  14.9927  14.9928
    15.0703  15.0703  15.0703  15.0703  15.5815  15.5815

          k =-0.5000-0.5000 0.0000 ( 12728 PWs)   bands (ev):

   -59.8458 -59.8458 -59.8458 -59.8458 -59.8406 -59.8406 -59.8406 -59.8406
   -59.8346 -59.8346 -59.8346 -59.8345 -59.8345 -59.8345 -59.8345 -59.8345
   -59.8334 -59.8334 -59.8334 -59.8334 -59.8334 -59.8334 -59.8334 -59.8334
   -31.4183 -31.4183 -31.4183 -31.4183 -31.4131 -31.4131 -31.4131 -31.4131
   -31.4040 -31.4040 -31.4040 -31.4040 -31.4040 -31.4040 -31.4040 -31.4040
   -31.4037 -31.4037 -31.4037 -31.4037 -31.4037 -31.4037 -31.4037 -31.4037
   -31.1873 -31.1873 -31.1873 -31.1873 -31.1820 -31.1820 -31.1820 -31.1820
   -31.1606 -31.1606 -31.1606 -31.1606 -31.1606 -31.1606 -31.1606 -31.1606
   -31.1583 -31.1582 -31.1582 -31.1582 -31.1582 -31.1582 -31.1582 -31.1582
   -31.0289 -31.0289 -31.0289 -31.0289 -31.0289 -31.0289 -31.0289 -31.0289
   -31.0258 -31.0258 -31.0258 -31.0258 -31.0258 -31.0258 -31.0258 -31.0258
   -30.8896 -30.8896 -30.8896 -30.8896 -30.8804 -30.8804 -30.8804 -30.8804
    -8.7785  -8.7785  -8.7785  -8.7785  -8.0614  -8.0614  -8.0614  -8.0614
    -8.0614  -8.0614  -8.0614  -8.0614  -7.8216  -7.8216  -7.8216  -7.8216
    -7.4942  -7.4942  -7.4942  -7.4942  -7.4942  -7.4942  -7.4942  -7.4942
    -7.3580  -7.3579  -7.3579  -7.3579  -7.3579  -7.3579  -7.3579  -7.3579
    -7.3287  -7.3287  -7.3287  -7.3287  -7.3287  -7.3287  -7.3287  -7.3287
    -7.2443  -7.2443  -7.2443  -7.2443  -7.2433  -7.2433  -7.2433  -7.2433
     4.2202   4.2202   4.2202   4.2202   4.6957   4.6957   4.6957   4.6957
     4.6957   4.6957   4.6957   4.6957   4.9653   4.9653   4.9653   4.9653
     5.2061   5.2061   5.2061   5.2061   5.2061   5.2061   5.2061   5.2061
     5.2370   5.2370   5.2370   5.2370   5.2370   5.2370   5.2370   5.2370
     5.5487   5.5487   5.5487   5.5487   5.5487   5.5487   5.5487   5.5487
     5.5909   5.5909   5.5909   5.5909   5.8117   5.8117   5.8117   5.8117
     5.8117   5.8117   5.8117   5.8117   6.1362   6.1362   6.1362   6.1362
     6.1670   6.1670   6.1670   6.1670   6.4806   6.4806   6.4806   6.4806
     6.5182   6.5182   6.5182   6.5182   6.5182   6.5182   6.5182   6.5182
     7.0335   7.0335   7.0335   7.0335   7.0335   7.0335   7.0335   7.0335
     7.0445   7.0445   7.0445   7.0445   7.0445   7.0445   7.0445   7.0445
     7.0960   7.0960   7.0960   7.0960   7.5264   7.5264   7.5264   7.5264
     7.5264   7.5264   7.5264   7.5264   7.6451   7.6451   7.6451   7.6451
     7.8148   7.8148   7.8148   7.8148   8.0982   8.0982   8.0983   8.0983
     8.0983   8.0983   8.0983   8.0983   8.4712   8.4712   8.4712   8.4712
     8.4712   8.4712   8.4712   8.4712   8.4858   8.4858   8.4858   8.4858
     8.6860   8.6860   8.6860   8.6860   8.8086   8.8086   8.8086   8.8086
     8.8086   8.8086   8.8086   8.8086   9.1469   9.1469   9.1469   9.1469
    13.3313  13.3313  13.3313  13.3313  13.3313  13.3313  13.3313  13.3313
    13.3342  13.3342  13.3342  13.3342  13.6611  13.6611  13.6611  13.6611
    13.9368  13.9368  13.9368  13.9368  13.9687  13.9687  13.9687  13.9687
    13.9880  13.9880  13.9880  13.9880  13.9880  13.9880  13.9880  13.9880
    14.0747  14.0747  14.0747  14.0747  14.0747  14.0747  14.0747  14.0747
    14.2876  14.2876  14.2876  14.2876  14.4049  14.4049  14.4049  14.4049
    14.4049  14.4049  14.4049  14.4049  14.5987  14.5987  14.5987  14.5987
    14.5987  14.5987  14.5988  14.5988  14.6754  14.6754  14.6754  14.6754
    14.6754  14.6754  14.6754  14.6754  14.7159  14.7159  14.7159  14.7159
    14.7159  14.7159  14.7159  14.7159  14.7634  14.7634  14.7634  14.7634
    15.0379  15.0379  15.0379  15.0379  15.5744  15.5744

          k =-0.5000-0.5000-0.5052 ( 12768 PWs)   bands (ev):

   -59.8433 -59.8432 -59.8432 -59.8432 -59.8432 -59.8432 -59.8432 -59.8432
   -59.8395 -59.8395 -59.8395 -59.8395 -59.8395 -59.8395 -59.8395 -59.8395
   -59.8288 -59.8288 -59.8288 -59.8288 -59.8281 -59.8281 -59.8281 -59.8281
   -31.4132 -31.4132 -31.4132 -31.4132 -31.4132 -31.4132 -31.4132 -31.4132
   -31.4099 -31.4099 -31.4099 -31.4098 -31.4098 -31.4098 -31.4098 -31.4098
   -31.4015 -31.4015 -31.4015 -31.4015 -31.3993 -31.3993 -31.3993 -31.3993
   -31.1782 -31.1782 -31.1782 -31.1782 -31.1782 -31.1782 -31.1782 -31.1782
   -31.1741 -31.1741 -31.1741 -31.1741 -31.1741 -31.1741 -31.1741 -31.1741
   -31.1525 -31.1525 -31.1525 -31.1525 -31.1503 -31.1503 -31.1503 -31.1503
   -31.0756 -31.0756 -31.0755 -31.0755 -31.0749 -31.0749 -31.0749 -31.0749
   -30.9357 -30.9357 -30.9357 -30.9357 -30.9357 -30.9357 -30.9357 -30.9356
   -30.9285 -30.9285 -30.9285 -30.9285 -30.9285 -30.9285 -30.9285 -30.9285
    -8.5653  -8.5653  -8.5653  -8.5653  -8.5653  -8.5653  -8.5653  -8.5653
    -7.7003  -7.7003  -7.7003  -7.7003  -7.7003  -7.7003  -7.7003  -7.7003
    -7.6244  -7.6244  -7.6244  -7.6244  -7.6069  -7.6069  -7.6069  -7.6069
    -7.3619  -7.3619  -7.3619  -7.3619  -7.3482  -7.3482  -7.3482  -7.3482
    -7.2794  -7.2794  -7.2794  -7.2794  -7.2794  -7.2794  -7.2794  -7.2794
    -7.2699  -7.2699  -7.2698  -7.2698  -7.2698  -7.2698  -7.2698  -7.2698
     4.3831   4.3831   4.3831   4.3831   4.3831   4.3831   4.3831   4.3831
     4.7276   4.7276   4.7276   4.7276   5.0879   5.0879   5.0879   5.0879
     5.1629   5.1629   5.1629   5.1629   5.1869   5.1869   5.1869   5.1869
     5.1869   5.1869   5.1869   5.1869   5.3079   5.3079   5.3079   5.3079
     5.3079   5.3079   5.3079   5.3079   5.3458   5.3458   5.3458   5.3458
     5.7625   5.7625   5.7625   5.7625   5.7625   5.7625   5.7625   5.7625
     5.8021   5.8021   5.8021   5.8021   6.4218   6.4218   6.4218   6.4218
     6.4218   6.4218   6.4218   6.4218   6.5318   6.5318   6.5318   6.5318
     6.5318   6.5318   6.5318   6.5318   6.7362   6.7362   6.7362   6.7362
     6.8425   6.8425   6.8425   6.8425   6.9280   6.9280   6.9280   6.9280
     7.0584   7.0584   7.0584   7.0584   7.0584   7.0584   7.0584   7.0584
     7.3966   7.3966   7.3966   7.3966   7.3966   7.3966   7.3966   7.3966
     7.4567   7.4567   7.4567   7.4567   7.4567   7.4567   7.4567   7.4567
     7.7591   7.7591   7.7591   7.7591   8.1948   8.1948   8.1948   8.1948
     8.2880   8.2880   8.2880   8.2880   8.4103   8.4103   8.4103   8.4103
     8.5183   8.5183   8.5183   8.5183   8.5183   8.5183   8.5183   8.5183
     8.5475   8.5475   8.5475   8.5475   8.5475   8.5475   8.5475   8.5475
     8.9506   8.9506   8.9506   8.9506   8.9506   8.9506   8.9506   8.9506
    13.3619  13.3619  13.3619  13.3619  13.5153  13.5153  13.5153  13.5153
    13.5153  13.5153  13.5153  13.5153  13.6318  13.6318  13.6318  13.6318
    13.6318  13.6318  13.6318  13.6318  13.8167  13.8167  13.8167  13.8167
    14.1069  14.1069  14.1069  14.1069  14.1069  14.1069  14.1069  14.1069
    14.1374  14.1374  14.1374  14.1374  14.1597  14.1597  14.1597  14.1597
    14.1597  14.1597  14.1597  14.1597  14.3781  14.3781  14.3781  14.3781
    14.4156  14.4156  14.4156  14.4156  14.4156  14.4156  14.4156  14.4156
    14.6415  14.6415  14.6415  14.6415  14.6415  14.6415  14.6415  14.6415
    14.6665  14.6665  14.6665  14.6665  14.8207  14.8207  14.8207  14.8207
    14.8651  14.8651  14.8651  14.8651  15.0450  15.0450  15.0450  15.0450
    15.0450  15.0450  15.0450  15.0450  15.4712  15.4712

     the Fermi energy is    10.3957 ev

!    total energy              =   -5707.55009036 Ry
     Harris-Foulkes estimate   =   -5707.55008405 Ry
     estimated scf accuracy    <          2.5E-09 Ry

     The total energy is the sum of the following terms:

     one-electron contribution =   -2456.23194097 Ry
     hartree contribution      =    1540.20360403 Ry
     xc contribution           =    -816.95412441 Ry
     ewald contribution        =   -3979.63622410 Ry
     Hubbard energy            =       5.07419049 Ry
     smearing contrib. (-TS)   =      -0.00559540 Ry

     total magnetization       =    48.00 Bohr mag/cell
     absolute magnetization    =    76.68 Bohr mag/cell

     convergence has been achieved in  16 iterations
 forces --- starting time for forces:
     forces       :      0.00s CPU      0.00s WALL (       1 calls)

     Forces acting on atoms (Ry/au):

 forces --- nonlocal contribution:
     forces       :      8.96s CPU      8.98s WALL (       2 calls)
 forces --- local contribution:
     forces       :      8.99s CPU      9.02s WALL (       3 calls)
 forces --- NLCC contribution:
     forces       :      8.99s CPU      9.02s WALL (       4 calls)
 forces --- entering force_hub:
     forces       :      8.99s CPU      9.02s WALL (       5 calls)
           1  forces --- i/o, init_us_2, calbec, s_psi:
     forces       :      9.25s CPU      9.28s WALL (       6 calls)
           1  forces --- dn/dtau:
     forces       :    120.04s CPU    120.16s WALL (       7 calls)
           2  forces --- i/o, init_us_2, calbec, s_psi:
     forces       :    120.29s CPU    120.41s WALL (       8 calls)
           2  forces --- dn/dtau:
     forces       :    230.87s CPU    231.05s WALL (       9 calls)
           3  forces --- i/o, init_us_2, calbec, s_psi:
     forces       :    231.16s CPU    231.35s WALL (      10 calls)
           3  forces --- dn/dtau:
     forces       :    341.36s CPU    341.65s WALL (      11 calls)
           4  forces --- i/o, init_us_2, calbec, s_psi:
     forces       :    341.61s CPU    341.90s WALL (      12 calls)
           4  forces --- dn/dtau:
     forces       :    452.09s CPU    452.47s WALL (      13 calls)
           5  forces --- i/o, init_us_2, calbec, s_psi:
     forces       :    452.33s CPU    452.72s WALL (      14 calls)
           5  forces --- dn/dtau:
     forces       :    562.77s CPU    563.25s WALL (      15 calls)
           6  forces --- i/o, init_us_2, calbec, s_psi:
     forces       :    563.00s CPU    563.49s WALL (      16 calls)
           6  forces --- dn/dtau:
     forces       :    673.88s CPU    674.44s WALL (      17 calls)
           7  forces --- i/o, init_us_2, calbec, s_psi:
     forces       :    674.13s CPU    674.69s WALL (      18 calls)
           7  forces --- dn/dtau:
     forces       :    784.90s CPU    785.60s WALL (      19 calls)
           8  forces --- i/o, init_us_2, calbec, s_psi:
     forces       :    785.14s CPU    785.85s WALL (      20 calls)
           8  forces --- dn/dtau:
     forces       :    895.46s CPU    896.22s WALL (      21 calls)
           9  forces --- i/o, init_us_2, calbec, s_psi:
     forces       :    895.68s CPU    896.45s WALL (      22 calls)
           9  forces --- dn/dtau:
     forces       :   1006.26s CPU   1007.17s WALL (      23 calls)
          10  forces --- i/o, init_us_2, calbec, s_psi:
     forces       :   1006.50s CPU   1007.41s WALL (      24 calls)
          10  forces --- dn/dtau:
     forces       :   1117.07s CPU   1118.11s WALL (      25 calls)
          11  forces --- i/o, init_us_2, calbec, s_psi:
     forces       :   1117.32s CPU   1118.36s WALL (      26 calls)
          11  forces --- dn/dtau:
     forces       :   1228.05s CPU   1229.19s WALL (      27 calls)
          12  forces --- i/o, init_us_2, calbec, s_psi:
     forces       :   1228.29s CPU   1229.44s WALL (      28 calls)
          12  forces --- dn/dtau:
     forces       :   1338.89s CPU   1340.14s WALL (      29 calls)
 forces --- Hubbard contribution:
     forces       :   1338.89s CPU   1340.14s WALL (      30 calls)
 forces --- ionic contribution:
     forces       :   1338.94s CPU   1340.19s WALL (      31 calls)
 forces --- SCF contribution:
     forces       :   1339.15s CPU   1340.40s WALL (      32 calls)
     atom   1 type  1   force =     0.00000000    0.00000000    0.00000000
     atom   2 type  1   force =     0.00000000    0.00000000    0.00000199
     atom   3 type  1   force =     0.00000000    0.00000000   -0.00000199
     atom   4 type  1   force =     0.00000000    0.00000000    0.00000000
     atom   5 type  1   force =     0.00000000    0.00000000    0.00000200
     atom   6 type  1   force =     0.00000000    0.00000000   -0.00000200
     atom   7 type  1   force =     0.00000000    0.00000000    0.00000000
     atom   8 type  1   force =     0.00000000    0.00000000    0.00000200
     atom   9 type  1   force =     0.00000000    0.00000000   -0.00000200
     atom  10 type  1   force =     0.00000000    0.00000000    0.00000000
     atom  11 type  1   force =     0.00000000    0.00000000    0.00000197
     atom  12 type  1   force =     0.00000000    0.00000000   -0.00000197
     atom  13 type  1   force =     0.00000069    0.00000069    0.00000192
     atom  14 type  1   force =     0.00000069    0.00000069    0.00000000
     atom  15 type  1   force =     0.00000069    0.00000069   -0.00000192
     atom  16 type  1   force =     0.00000070   -0.00000070    0.00000189
     atom  17 type  1   force =     0.00000069   -0.00000069    0.00000000
     atom  18 type  1   force =     0.00000070   -0.00000070   -0.00000189
     atom  19 type  1   force =    -0.00000070    0.00000070    0.00000189
     atom  20 type  1   force =    -0.00000069    0.00000069    0.00000000
     atom  21 type  1   force =    -0.00000070    0.00000070   -0.00000189
     atom  22 type  1   force =    -0.00000069   -0.00000069    0.00000192
     atom  23 type  1   force =    -0.00000069   -0.00000069    0.00000000
     atom  24 type  1   force =    -0.00000069   -0.00000069   -0.00000192
     atom  25 type  2   force =     0.00408318    0.00408318    0.00000000
     atom  26 type  2   force =     0.00408332    0.00408332    0.00000060
     atom  27 type  2   force =     0.00408332    0.00408332   -0.00000060
     atom  28 type  2   force =     0.00408317    0.00408279    0.00000000
     atom  29 type  2   force =     0.00408329    0.00408291    0.00000060
     atom  30 type  2   force =     0.00408329    0.00408291   -0.00000060
     atom  31 type  2   force =     0.00408279    0.00408317    0.00000000
     atom  32 type  2   force =     0.00408291    0.00408329    0.00000060
     atom  33 type  2   force =     0.00408291    0.00408329   -0.00000060
     atom  34 type  2   force =     0.00408280    0.00408280    0.00000000
     atom  35 type  2   force =     0.00408295    0.00408295    0.00000060
     atom  36 type  2   force =     0.00408295    0.00408295   -0.00000060
     atom  37 type  2   force =    -0.00408280   -0.00408280    0.00000000
     atom  38 type  2   force =    -0.00408295   -0.00408295    0.00000060
     atom  39 type  2   force =    -0.00408295   -0.00408295   -0.00000060
     atom  40 type  2   force =    -0.00408279   -0.00408317    0.00000000
     atom  41 type  2   force =    -0.00408291   -0.00408329    0.00000060
     atom  42 type  2   force =    -0.00408291   -0.00408329   -0.00000060
     atom  43 type  2   force =    -0.00408317   -0.00408279    0.00000000
     atom  44 type  2   force =    -0.00408329   -0.00408291    0.00000060
     atom  45 type  2   force =    -0.00408329   -0.00408291   -0.00000060
     atom  46 type  2   force =    -0.00408318   -0.00408318    0.00000000
     atom  47 type  2   force =    -0.00408332   -0.00408332    0.00000060
     atom  48 type  2   force =    -0.00408332   -0.00408332   -0.00000060
     atom  49 type  2   force =    -0.00408231    0.00408258    0.00000064
     atom  50 type  2   force =    -0.00408252    0.00408277    0.00000000
     atom  51 type  2   force =    -0.00408231    0.00408258   -0.00000064
     atom  52 type  2   force =    -0.00408225    0.00408225    0.00000063
     atom  53 type  2   force =    -0.00408244    0.00408244    0.00000000
     atom  54 type  2   force =    -0.00408225    0.00408225   -0.00000063
     atom  55 type  2   force =    -0.00408261    0.00408261    0.00000063
     atom  56 type  2   force =    -0.00408280    0.00408280    0.00000000
     atom  57 type  2   force =    -0.00408261    0.00408261   -0.00000063
     atom  58 type  2   force =    -0.00408258    0.00408231    0.00000064
     atom  59 type  2   force =    -0.00408277    0.00408252    0.00000000
     atom  60 type  2   force =    -0.00408258    0.00408231   -0.00000064
     atom  61 type  2   force =     0.00408258   -0.00408231    0.00000064
     atom  62 type  2   force =     0.00408277   -0.00408252    0.00000000
     atom  63 type  2   force =     0.00408258   -0.00408231   -0.00000064
     atom  64 type  2   force =     0.00408261   -0.00408261    0.00000063
     atom  65 type  2   force =     0.00408280   -0.00408280    0.00000000
     atom  66 type  2   force =     0.00408261   -0.00408261   -0.00000063
     atom  67 type  2   force =     0.00408225   -0.00408225    0.00000063
     atom  68 type  2   force =     0.00408244   -0.00408244    0.00000000
     atom  69 type  2   force =     0.00408225   -0.00408225   -0.00000063
     atom  70 type  2   force =     0.00408231   -0.00408258    0.00000064
     atom  71 type  2   force =     0.00408252   -0.00408277    0.00000000
     atom  72 type  2   force =     0.00408231   -0.00408258   -0.00000064

     Total force =     0.040003     Total SCF correction =     0.000081


     entering subroutine stress ...

          total   stress  (Ry/bohr**3)                   (kbar)     P=  119.49
   0.00072863   0.00000000   0.00000000        107.19      0.00      0.00
   0.00000000   0.00072863   0.00000000          0.00    107.19      0.00
   0.00000000   0.00000000   0.00097948          0.00      0.00    144.09


     Writing output data file cro2.save
 
     init_run     :     33.07s CPU     34.35s WALL (       1 calls)
     electrons    :   1683.05s CPU   1702.19s WALL (       1 calls)
     forces       :   1339.15s CPU   1340.41s WALL (      33 calls)
     stress       :   2466.58s CPU   2468.66s WALL (       1 calls)

     Called by init_run:
     wfcinit      :     27.87s CPU     28.53s WALL (       1 calls)
     potinit      :      0.80s CPU      0.83s WALL (       1 calls)

     Called by electrons:
     c_bands      :   1454.91s CPU   1469.92s WALL (      16 calls)
     sum_band     :    187.84s CPU    189.43s WALL (      16 calls)
     v_of_rho     :      2.76s CPU      2.79s WALL (      17 calls)
     newd         :     34.88s CPU     34.89s WALL (      17 calls)
     mix_rho      :      1.07s CPU      1.09s WALL (      16 calls)

     Called by c_bands:
     init_us_2    :      1.27s CPU      1.52s WALL (     552 calls)
     cegterg      :   1446.25s CPU   1459.74s WALL (     192 calls)

     Called by *egterg:
     h_psi        :    615.34s CPU    619.26s WALL (     787 calls)
     s_psi        :     51.51s CPU     51.58s WALL (     919 calls)
     g_psi        :      0.63s CPU      0.63s WALL (     583 calls)
     cdiaghg      :    671.84s CPU    681.01s WALL (     775 calls)

     Called by h_psi:
     add_vuspsi   :     40.15s CPU     40.24s WALL (     787 calls)

     General routines
     calbec       :    129.30s CPU    129.95s WALL (    2150 calls)
     fft          :      4.33s CPU      4.40s WALL (     530 calls)
     ffts         :      0.67s CPU      0.67s WALL (     411 calls)
     fftw         :    565.52s CPU    569.61s WALL (  433494 calls)
     interpolate  :      0.49s CPU      0.50s WALL (      66 calls)
     davcio       :      0.22s CPU      3.31s WALL (    1596 calls)
 
     Parallel routines
     fft_scatter  :    414.13s CPU    417.76s WALL (  434435 calls)
 
     PWSCF        :     1h32m CPU        1h32m WALL

 
   This run was terminated on:   0:27:52  29Aug2018            

=------------------------------------------------------------------------------=
   JOB DONE.
=------------------------------------------------------------------------------=
