
     Program PWSCF v.4.3        starts on 29Aug2018 at  0:27:57 

     This program is part of the open-source Quantum ESPRESSO suite
     for quantum simulation of materials; please cite
         "P. Giannozzi et al., J. Phys.:Condens. Matter 21 395502 (2009);
          URL http://www.quantum-espresso.org", 
     in publications or presentations arising from this work. More details at
     http://www.quantum-espresso.org/wiki/index.php/Citing_Quantum-ESPRESSO

     Parallel version (MPI), running on    64 processors
     R & G space division:  proc/pool =   64

     Current dimensions of program PWSCF are:
     Max number of different atomic species (ntypx) = **
     Max number of k-points (npk) =  40000
     Max angular momentum in pseudopotentials (lmaxx) =  3
     Waiting for input...

     Atomic positions and unit cell read from directory:
     ./cro2.save/
 

     Subspace diagonalization in iterative solution of the eigenvalue problem:
     parallel, distributed-memory algorithm (size of sub-group:  5*  5 procs)

     Found symmetry operation: I + (  0.0000  0.0000  0.3333)
     This is a supercell, fractional translation are disabled
 
   Stick Mesh
   ----------
   nst =  6657,  nstw =   673, nsts =  2669
               n.st   n.stw   n.sts    n.g    n.gw   n.gs
   min         104      10      41    6328     199    1583
   max         105      12      42    6332     205    1620
       6657     673    2669  405123   12877  102397
 


     bravais-lattice index     =           14
     lattice parameter (a_0)   =      16.7090  a.u.
     unit-cell volume          =    4616.9515 (a.u.)^3
     number of atoms/cell      =           72
     number of atomic types    =            2
     number of electrons       =       624.00
     number of Kohn-Sham states=         1122
     kinetic-energy cutoff     =      30.0000  Ry
     charge density cutoff     =     300.0000  Ry
     Exchange-correlation      =  SLA  PW   PBE  PBE (1434)
     EXX-fraction              =        0.00

     celldm(1)=  16.708958  celldm(2)=   1.000000  celldm(3)=   0.989708
     celldm(4)=   0.000000  celldm(5)=   0.000000  celldm(6)=   0.000000

     crystal axes: (cart. coord. in units of a_0)
               a(1) = (   1.000000   0.000000   0.000000 )  
               a(2) = (   0.000000   1.000000   0.000000 )  
               a(3) = (   0.000000   0.000000   0.989708 )  

     reciprocal axes: (cart. coord. in units 2 pi/a_0)
               b(1) = (  1.000000  0.000000  0.000000 )  
               b(2) = (  0.000000  1.000000  0.000000 )  
               b(3) = (  0.000000  0.000000  1.010399 )  


     PseudoPot. # 1 for Cr read from file Cr.pbe-van-yufengl.UPF
     MD5 check sum: b3ad88ce73ccf30ec9a6cdad427f0885
     Pseudo is Ultrasoft, Zval = 14.0
     Generated by new atomic code, or converted to UPF format
     Using radial grid of  857 points,  6 beta functions with: 
                l(1) =   0
                l(2) =   0
                l(3) =   1
                l(4) =   1
                l(5) =   2
                l(6) =   2
     Q(r) pseudized with  6 coefficients,  rinner =    1.000   1.000   1.000
                                                       1.000   1.000

     PseudoPot. # 2 for O  read from file O.pbe-van_bm.UPF
     MD5 check sum: ca2828d9fb1f294809e918903b7648d1
     Pseudo is Ultrasoft, Zval =  6.0
     Generated by new atomic code, or converted to UPF format
     Using radial grid of  737 points,  4 beta functions with: 
                l(1) =   0
                l(2) =   0
                l(3) =   1
                l(4) =   1
     Q(r) pseudized with  8 coefficients,  rinner =    0.800   0.800   0.800


     atomic species   valence    mass     pseudopotential
        Cr            14.00    52.00000     Cr( 1.00)
        O              6.00    15.99900     O ( 1.00)

     Starting magnetic structure 
     atomic species   magnetization
        Cr           1.000
        O            0.000

     LDA+U calculation, Hubbard_lmax = 2
     atomic species  L   Hubbard U  Hubbard alpha
        Cr           2    0.257245    0.000000

      8 Sym.Ops. (with inversion)


   Cartesian axes

     site n.     atom                  positions (a_0 units)
         1           Cr  tau(  1) = (   0.0000000   0.0000000   0.0000000  )
         2           Cr  tau(  2) = (   0.0000000   0.0000000   0.3299027  )
         3           Cr  tau(  3) = (   0.0000000   0.0000000   0.6598055  )
         4           Cr  tau(  4) = (   0.0000000   0.5000000   0.0000000  )
         5           Cr  tau(  5) = (   0.0000000   0.5000000   0.3299027  )
         6           Cr  tau(  6) = (   0.0000000   0.5000000   0.6598055  )
         7           Cr  tau(  7) = (   0.5000000   0.0000000   0.0000000  )
         8           Cr  tau(  8) = (   0.5000000   0.0000000   0.3299027  )
         9           Cr  tau(  9) = (   0.5000000   0.0000000   0.6598055  )
        10           Cr  tau( 10) = (   0.5000000   0.5000000   0.0000000  )
        11           Cr  tau( 11) = (   0.5000000   0.5000000   0.3299027  )
        12           Cr  tau( 12) = (   0.5000000   0.5000000   0.6598055  )
        13           Cr  tau( 13) = (   0.2500000   0.2500000   0.1649514  )
        14           Cr  tau( 14) = (   0.2500000   0.2500000   0.4948541  )
        15           Cr  tau( 15) = (   0.2500000   0.2500000   0.8247569  )
        16           Cr  tau( 16) = (   0.2500000   0.7500000   0.1649514  )
        17           Cr  tau( 17) = (   0.2500000   0.7500000   0.4948541  )
        18           Cr  tau( 18) = (   0.2500000   0.7500000   0.8247569  )
        19           Cr  tau( 19) = (   0.7500000   0.2500000   0.1649514  )
        20           Cr  tau( 20) = (   0.7500000   0.2500000   0.4948541  )
        21           Cr  tau( 21) = (   0.7500000   0.2500000   0.8247569  )
        22           Cr  tau( 22) = (   0.7500000   0.7500000   0.1649514  )
        23           Cr  tau( 23) = (   0.7500000   0.7500000   0.4948541  )
        24           Cr  tau( 24) = (   0.7500000   0.7500000   0.8247569  )
        25           O   tau( 25) = (   0.1505000   0.1505000   0.0000000  )
        26           O   tau( 26) = (   0.1505000   0.1505000   0.3299027  )
        27           O   tau( 27) = (   0.1505000   0.1505000   0.6598055  )
        28           O   tau( 28) = (   0.1505000   0.6505000   0.0000000  )
        29           O   tau( 29) = (   0.1505000   0.6505000   0.3299027  )
        30           O   tau( 30) = (   0.1505000   0.6505000   0.6598055  )
        31           O   tau( 31) = (   0.6505000   0.1505000   0.0000000  )
        32           O   tau( 32) = (   0.6505000   0.1505000   0.3299027  )
        33           O   tau( 33) = (   0.6505000   0.1505000   0.6598055  )
        34           O   tau( 34) = (   0.6505000   0.6505000   0.0000000  )
        35           O   tau( 35) = (   0.6505000   0.6505000   0.3299027  )
        36           O   tau( 36) = (   0.6505000   0.6505000   0.6598055  )
        37           O   tau( 37) = (   0.3495000   0.3495000   0.0000000  )
        38           O   tau( 38) = (   0.3495000   0.3495000   0.3299027  )
        39           O   tau( 39) = (   0.3495000   0.3495000   0.6598055  )
        40           O   tau( 40) = (   0.3495000   0.8495000   0.0000000  )
        41           O   tau( 41) = (   0.3495000   0.8495000   0.3299027  )
        42           O   tau( 42) = (   0.3495000   0.8495000   0.6598055  )
        43           O   tau( 43) = (   0.8495000   0.3495000   0.0000000  )
        44           O   tau( 44) = (   0.8495000   0.3495000   0.3299027  )
        45           O   tau( 45) = (   0.8495000   0.3495000   0.6598055  )
        46           O   tau( 46) = (   0.8495000   0.8495000   0.0000000  )
        47           O   tau( 47) = (   0.8495000   0.8495000   0.3299027  )
        48           O   tau( 48) = (   0.8495000   0.8495000   0.6598055  )
        49           O   tau( 49) = (   0.0995000   0.4005000   0.1649514  )
        50           O   tau( 50) = (   0.0995000   0.4005000   0.4948541  )
        51           O   tau( 51) = (   0.0995000   0.4005000   0.8247569  )
        52           O   tau( 52) = (   0.0995000   0.9005000   0.1649514  )
        53           O   tau( 53) = (   0.0995000   0.9005000   0.4948541  )
        54           O   tau( 54) = (   0.0995000   0.9005000   0.8247569  )
        55           O   tau( 55) = (   0.5995000   0.4005000   0.1649514  )
        56           O   tau( 56) = (   0.5995000   0.4005000   0.4948541  )
        57           O   tau( 57) = (   0.5995000   0.4005000   0.8247569  )
        58           O   tau( 58) = (   0.5995000   0.9005000   0.1649514  )
        59           O   tau( 59) = (   0.5995000   0.9005000   0.4948541  )
        60           O   tau( 60) = (   0.5995000   0.9005000   0.8247569  )
        61           O   tau( 61) = (   0.4005000   0.0995000   0.1649514  )
        62           O   tau( 62) = (   0.4005000   0.0995000   0.4948541  )
        63           O   tau( 63) = (   0.4005000   0.0995000   0.8247569  )
        64           O   tau( 64) = (   0.4005000   0.5995000   0.1649514  )
        65           O   tau( 65) = (   0.4005000   0.5995000   0.4948541  )
        66           O   tau( 66) = (   0.4005000   0.5995000   0.8247569  )
        67           O   tau( 67) = (   0.9005000   0.0995000   0.1649514  )
        68           O   tau( 68) = (   0.9005000   0.0995000   0.4948541  )
        69           O   tau( 69) = (   0.9005000   0.0995000   0.8247569  )
        70           O   tau( 70) = (   0.9005000   0.5995000   0.1649514  )
        71           O   tau( 71) = (   0.9005000   0.5995000   0.4948541  )
        72           O   tau( 72) = (   0.9005000   0.5995000   0.8247569  )

     number of k points=     2  Fermi-Dirac smearing, width (Ry)=  0.0019
                       cart. coord. in units 2pi/a_0
        k(    1) = (   0.0000000   0.0000000   0.0000000), wk =   1.0000000
        k(    2) = (   0.0000000   0.0000000   0.0000000), wk =   1.0000000

     G cutoff = 2121.5842  ( 405123 G-vectors)     FFT grid: ( 96, 96, 96)
     G cutoff =  848.6337  ( 102397 G-vectors)  smooth grid: ( 60, 60, 60)

     Largest allocated arrays     est. size (Mb)     dimensions
        Kohn-Sham Wavefunctions         3.46 Mb     (    202,1122)
        Atomic wavefunctions            1.33 Mb     (    202, 432)
        NL pseudopotentials             2.52 Mb     (    202, 816)
        Each V/rho on FFT grid          0.56 Mb     (  18432,   2)
        Each G-vector array             0.05 Mb     (   6332)
        G-vector shells                 0.02 Mb     (   3094)
     Largest temporary arrays     est. size (Mb)     dimensions
        Auxiliary wavefunctions        13.83 Mb     (    202,4488)
        Each subspace H/S matrix      307.34 Mb     (   4488,4488)
        Each <psi_i|beta_j> matrix     13.97 Mb     (    816,1122)

     The potential is recalculated from file :
     ./cro2.save/charge-density.dat


     Parameters of the lda+U calculation:
     Number of iteration with fixed ns =  0
     Starting ns and Hubbard U :
 enter write_ns
U( 1) =  3.5000      U( 2) =  0.0000
alpha( 1) =  0.0000      alpha( 2) =  0.0000
atom    1   Tr[ns(na)]=   5.0997163
atom    1   spin  1
eigenvalues:  0.5542473 0.5895538 0.7675219 0.9055787 0.9883541
 eigenvectors
 1  -0.0000000 -0.7071068  0.7071068  0.0000000  0.0000000
 2  -0.5424756 -0.0000000 -0.0000000  0.0000000  0.8400715
 3   0.0000000 -0.0000000 -0.0000000  1.0000000 -0.0000000
 4   0.0000000 -0.7071068 -0.7071068 -0.0000000 -0.0000000
 5   0.8400715  0.0000000  0.0000000 -0.0000000  0.5424756
 occupations
 0.871 -0.000 -0.000  0.000  0.182
-0.000  0.730  0.176  0.000  0.000
-0.000  0.176  0.730  0.000  0.000
 0.000  0.000  0.000  0.768 -0.000
 0.182  0.000  0.000 -0.000  0.707
atom    1   spin  2
eigenvalues:  0.1297387 0.1676307 0.1715782 0.4063778 0.4191351
 eigenvectors
 1   0.8306757  0.0000000 -0.0000000  0.0000000  0.5567565
 2  -0.0000000 -0.7071068 -0.7071068  0.0000000  0.0000000
 3   0.0000000 -0.0000000 -0.0000000 -1.0000000 -0.0000000
 4  -0.0000000 -0.7071068  0.7071068 -0.0000000  0.0000000
 5  -0.5567565  0.0000000 -0.0000000 -0.0000000  0.8306757
 occupations
 0.219 -0.000 -0.000  0.000 -0.134
-0.000  0.287 -0.119  0.000  0.000
-0.000 -0.119  0.287 -0.000  0.000
 0.000  0.000 -0.000  0.172 -0.000
-0.134  0.000  0.000 -0.000  0.329
atom    2   Tr[ns(na)]=   5.0997134
atom    2   spin  1
eigenvalues:  0.5542471 0.5895536 0.7675211 0.9055782 0.9883541
 eigenvectors
 1   0.0000000  0.7071068 -0.7071068 -0.0000000 -0.0000000
 2  -0.5424757 -0.0000000 -0.0000000  0.0000000  0.8400715
 3   0.0000000 -0.0000000 -0.0000000  1.0000000 -0.0000000
 4  -0.0000000  0.7071068  0.7071068  0.0000000  0.0000000
 5   0.8400715  0.0000000  0.0000000 -0.0000000  0.5424757
 occupations
 0.871 -0.000 -0.000  0.000  0.182
-0.000  0.730  0.176  0.000  0.000
-0.000  0.176  0.730  0.000  0.000
 0.000  0.000  0.000  0.768 -0.000
 0.182  0.000  0.000 -0.000  0.707
atom    2   spin  2
eigenvalues:  0.1297386 0.1676305 0.1715781 0.4063775 0.4191348
 eigenvectors
 1   0.8306757  0.0000000 -0.0000000  0.0000000  0.5567566
 2  -0.0000000 -0.7071068 -0.7071068  0.0000000  0.0000000
 3   0.0000000 -0.0000000 -0.0000000 -1.0000000 -0.0000000
 4  -0.0000000 -0.7071068  0.7071068 -0.0000000  0.0000000
 5  -0.5567566  0.0000000 -0.0000000 -0.0000000  0.8306757
 occupations
 0.219 -0.000 -0.000  0.000 -0.134
-0.000  0.287 -0.119  0.000  0.000
-0.000 -0.119  0.287 -0.000  0.000
 0.000  0.000 -0.000  0.172 -0.000
-0.134  0.000  0.000 -0.000  0.329
atom    3   Tr[ns(na)]=   5.0997134
atom    3   spin  1
eigenvalues:  0.5542471 0.5895536 0.7675211 0.9055782 0.9883541
 eigenvectors
 1   0.0000000  0.7071068 -0.7071068 -0.0000000 -0.0000000
 2  -0.5424757 -0.0000000 -0.0000000  0.0000000  0.8400715
 3   0.0000000 -0.0000000 -0.0000000  1.0000000 -0.0000000
 4  -0.0000000  0.7071068  0.7071068  0.0000000  0.0000000
 5   0.8400715  0.0000000  0.0000000 -0.0000000  0.5424757
 occupations
 0.871 -0.000 -0.000  0.000  0.182
-0.000  0.730  0.176  0.000  0.000
-0.000  0.176  0.730  0.000  0.000
 0.000  0.000  0.000  0.768 -0.000
 0.182  0.000  0.000 -0.000  0.707
atom    3   spin  2
eigenvalues:  0.1297386 0.1676305 0.1715781 0.4063775 0.4191348
 eigenvectors
 1   0.8306757  0.0000000 -0.0000000  0.0000000  0.5567566
 2  -0.0000000 -0.7071068 -0.7071068  0.0000000  0.0000000
 3   0.0000000 -0.0000000 -0.0000000 -1.0000000 -0.0000000
 4  -0.0000000 -0.7071068  0.7071068 -0.0000000  0.0000000
 5  -0.5567566  0.0000000 -0.0000000 -0.0000000  0.8306757
 occupations
 0.219 -0.000 -0.000  0.000 -0.134
-0.000  0.287 -0.119  0.000  0.000
-0.000 -0.119  0.287 -0.000  0.000
 0.000  0.000 -0.000  0.172 -0.000
-0.134  0.000  0.000 -0.000  0.329
atom    4   Tr[ns(na)]=   5.0997150
atom    4   spin  1
eigenvalues:  0.5542471 0.5895536 0.7675215 0.9055785 0.9883541
 eigenvectors
 1   0.0000000  0.7071068 -0.7071068 -0.0000000 -0.0000000
 2  -0.5424756 -0.0000000 -0.0000000  0.0000000  0.8400716
 3  -0.0000000  0.0000000  0.0000000 -1.0000000 -0.0000000
 4   0.0000000 -0.7071068 -0.7071068 -0.0000000 -0.0000000
 5   0.8400716  0.0000000  0.0000000 -0.0000000  0.5424756
 occupations
 0.871 -0.000 -0.000 -0.000  0.182
-0.000  0.730  0.176  0.000  0.000
-0.000  0.176  0.730  0.000  0.000
-0.000  0.000  0.000  0.768 -0.000
 0.182  0.000  0.000 -0.000  0.707
atom    4   spin  2
eigenvalues:  0.1297387 0.1676306 0.1715782 0.4063778 0.4191350
 eigenvectors
 1   0.8306757  0.0000000 -0.0000000 -0.0000000  0.5567565
 2   0.0000000  0.7071068  0.7071068 -0.0000000 -0.0000000
 3  -0.0000000 -0.0000000 -0.0000000 -1.0000000 -0.0000000
 4  -0.0000000 -0.7071068  0.7071068 -0.0000000  0.0000000
 5  -0.5567565  0.0000000 -0.0000000 -0.0000000  0.8306757
 occupations
 0.219 -0.000 -0.000  0.000 -0.134
-0.000  0.287 -0.119  0.000  0.000
-0.000 -0.119  0.287 -0.000  0.000
 0.000  0.000 -0.000  0.172 -0.000
-0.134  0.000  0.000 -0.000  0.329
atom    5   Tr[ns(na)]=   5.0997121
atom    5   spin  1
eigenvalues:  0.5542469 0.5895533 0.7675207 0.9055779 0.9883540
 eigenvectors
 1  -0.0000000 -0.7071068  0.7071068  0.0000000  0.0000000
 2  -0.5424757 -0.0000000 -0.0000000  0.0000000  0.8400715
 3   0.0000000 -0.0000000 -0.0000000  1.0000000 -0.0000000
 4   0.0000000 -0.7071068 -0.7071068 -0.0000000 -0.0000000
 5   0.8400715  0.0000000  0.0000000 -0.0000000  0.5424757
 occupations
 0.871 -0.000 -0.000 -0.000  0.182
-0.000  0.730  0.176  0.000  0.000
-0.000  0.176  0.730  0.000  0.000
-0.000  0.000  0.000  0.768 -0.000
 0.182  0.000  0.000 -0.000  0.707
atom    5   spin  2
eigenvalues:  0.1297386 0.1676305 0.1715781 0.4063774 0.4191347
 eigenvectors
 1  -0.8306757 -0.0000000  0.0000000  0.0000000 -0.5567566
 2  -0.0000000 -0.7071068 -0.7071068  0.0000000  0.0000000
 3  -0.0000000 -0.0000000 -0.0000000 -1.0000000 -0.0000000
 4  -0.0000000 -0.7071068  0.7071068 -0.0000000  0.0000000
 5  -0.5567566  0.0000000 -0.0000000  0.0000000  0.8306757
 occupations
 0.219 -0.000 -0.000  0.000 -0.134
-0.000  0.287 -0.119  0.000  0.000
-0.000 -0.119  0.287 -0.000  0.000
 0.000  0.000 -0.000  0.172  0.000
-0.134  0.000  0.000  0.000  0.329
atom    6   Tr[ns(na)]=   5.0997121
atom    6   spin  1
eigenvalues:  0.5542469 0.5895533 0.7675207 0.9055779 0.9883540
 eigenvectors
 1  -0.0000000 -0.7071068  0.7071068  0.0000000  0.0000000
 2  -0.5424757 -0.0000000 -0.0000000  0.0000000  0.8400715
 3   0.0000000 -0.0000000 -0.0000000  1.0000000 -0.0000000
 4   0.0000000 -0.7071068 -0.7071068 -0.0000000 -0.0000000
 5   0.8400715  0.0000000  0.0000000 -0.0000000  0.5424757
 occupations
 0.871 -0.000 -0.000 -0.000  0.182
-0.000  0.730  0.176  0.000  0.000
-0.000  0.176  0.730  0.000  0.000
-0.000  0.000  0.000  0.768 -0.000
 0.182  0.000  0.000 -0.000  0.707
atom    6   spin  2
eigenvalues:  0.1297386 0.1676305 0.1715781 0.4063774 0.4191347
 eigenvectors
 1  -0.8306757 -0.0000000  0.0000000  0.0000000 -0.5567566
 2  -0.0000000 -0.7071068 -0.7071068  0.0000000  0.0000000
 3  -0.0000000 -0.0000000 -0.0000000 -1.0000000 -0.0000000
 4  -0.0000000 -0.7071068  0.7071068 -0.0000000  0.0000000
 5  -0.5567566  0.0000000 -0.0000000  0.0000000  0.8306757
 occupations
 0.219 -0.000 -0.000  0.000 -0.134
-0.000  0.287 -0.119  0.000  0.000
-0.000 -0.119  0.287 -0.000  0.000
 0.000  0.000 -0.000  0.172  0.000
-0.134  0.000  0.000  0.000  0.329
atom    7   Tr[ns(na)]=   5.0997150
atom    7   spin  1
eigenvalues:  0.5542471 0.5895536 0.7675215 0.9055785 0.9883541
 eigenvectors
 1   0.0000000  0.7071068 -0.7071068 -0.0000000 -0.0000000
 2   0.5424756  0.0000000  0.0000000  0.0000000 -0.8400716
 3  -0.0000000 -0.0000000 -0.0000000  1.0000000 -0.0000000
 4   0.0000000 -0.7071068 -0.7071068 -0.0000000 -0.0000000
 5   0.8400716  0.0000000  0.0000000  0.0000000  0.5424756
 occupations
 0.871 -0.000 -0.000  0.000  0.182
-0.000  0.730  0.176  0.000  0.000
-0.000  0.176  0.730  0.000  0.000
 0.000  0.000  0.000  0.768  0.000
 0.182  0.000  0.000  0.000  0.707
atom    7   spin  2
eigenvalues:  0.1297387 0.1676306 0.1715782 0.4063778 0.4191350
 eigenvectors
 1  -0.8306757 -0.0000000  0.0000000 -0.0000000 -0.5567565
 2   0.0000000  0.7071068  0.7071068 -0.0000000 -0.0000000
 3  -0.0000000  0.0000000  0.0000000  1.0000000 -0.0000000
 4  -0.0000000 -0.7071068  0.7071068 -0.0000000  0.0000000
 5  -0.5567565  0.0000000 -0.0000000  0.0000000  0.8306757
 occupations
 0.219 -0.000 -0.000 -0.000 -0.134
-0.000  0.287 -0.119  0.000  0.000
-0.000 -0.119  0.287 -0.000  0.000
-0.000  0.000 -0.000  0.172  0.000
-0.134  0.000  0.000  0.000  0.329
atom    8   Tr[ns(na)]=   5.0997121
atom    8   spin  1
eigenvalues:  0.5542469 0.5895533 0.7675207 0.9055779 0.9883540
 eigenvectors
 1  -0.0000000 -0.7071068  0.7071068  0.0000000  0.0000000
 2   0.5424757  0.0000000  0.0000000  0.0000000 -0.8400715
 3   0.0000000  0.0000000  0.0000000 -1.0000000 -0.0000000
 4   0.0000000 -0.7071068 -0.7071068 -0.0000000 -0.0000000
 5   0.8400715  0.0000000  0.0000000  0.0000000  0.5424757
 occupations
 0.871 -0.000 -0.000  0.000  0.182
-0.000  0.730  0.176  0.000  0.000
-0.000  0.176  0.730  0.000  0.000
 0.000  0.000  0.000  0.768  0.000
 0.182  0.000  0.000  0.000  0.707
atom    8   spin  2
eigenvalues:  0.1297386 0.1676305 0.1715781 0.4063774 0.4191347
 eigenvectors
 1   0.8306757  0.0000000 -0.0000000  0.0000000  0.5567566
 2  -0.0000000 -0.7071068 -0.7071068  0.0000000  0.0000000
 3  -0.0000000  0.0000000  0.0000000  1.0000000 -0.0000000
 4  -0.0000000 -0.7071068  0.7071068 -0.0000000  0.0000000
 5  -0.5567566  0.0000000 -0.0000000 -0.0000000  0.8306757
 occupations
 0.219 -0.000 -0.000 -0.000 -0.134
-0.000  0.287 -0.119  0.000  0.000
-0.000 -0.119  0.287 -0.000  0.000
-0.000  0.000 -0.000  0.172 -0.000
-0.134  0.000  0.000 -0.000  0.329
atom    9   Tr[ns(na)]=   5.0997121
atom    9   spin  1
eigenvalues:  0.5542469 0.5895533 0.7675207 0.9055779 0.9883540
 eigenvectors
 1  -0.0000000 -0.7071068  0.7071068  0.0000000  0.0000000
 2   0.5424757  0.0000000  0.0000000  0.0000000 -0.8400715
 3   0.0000000  0.0000000  0.0000000 -1.0000000 -0.0000000
 4   0.0000000 -0.7071068 -0.7071068 -0.0000000 -0.0000000
 5   0.8400715  0.0000000  0.0000000  0.0000000  0.5424757
 occupations
 0.871 -0.000 -0.000  0.000  0.182
-0.000  0.730  0.176  0.000  0.000
-0.000  0.176  0.730  0.000  0.000
 0.000  0.000  0.000  0.768  0.000
 0.182  0.000  0.000  0.000  0.707
atom    9   spin  2
eigenvalues:  0.1297386 0.1676305 0.1715781 0.4063774 0.4191347
 eigenvectors
 1   0.8306757  0.0000000 -0.0000000  0.0000000  0.5567566
 2  -0.0000000 -0.7071068 -0.7071068  0.0000000  0.0000000
 3  -0.0000000  0.0000000  0.0000000  1.0000000 -0.0000000
 4  -0.0000000 -0.7071068  0.7071068 -0.0000000  0.0000000
 5  -0.5567566  0.0000000 -0.0000000 -0.0000000  0.8306757
 occupations
 0.219 -0.000 -0.000 -0.000 -0.134
-0.000  0.287 -0.119  0.000  0.000
-0.000 -0.119  0.287 -0.000  0.000
-0.000  0.000 -0.000  0.172 -0.000
-0.134  0.000  0.000 -0.000  0.329
atom   10   Tr[ns(na)]=   5.0997139
atom   10   spin  1
eigenvalues:  0.5542470 0.5895534 0.7675213 0.9055782 0.9883541
 eigenvectors
 1  -0.0000000 -0.7071068  0.7071068  0.0000000  0.0000000
 2  -0.5424756 -0.0000000 -0.0000000  0.0000000  0.8400716
 3   0.0000000 -0.0000000 -0.0000000  1.0000000 -0.0000000
 4   0.0000000 -0.7071068 -0.7071068 -0.0000000 -0.0000000
 5   0.8400716  0.0000000  0.0000000 -0.0000000  0.5424756
 occupations
 0.871 -0.000 -0.000  0.000  0.182
-0.000  0.730  0.176  0.000  0.000
-0.000  0.176  0.730  0.000  0.000
 0.000  0.000  0.000  0.768 -0.000
 0.182  0.000  0.000 -0.000  0.707
atom   10   spin  2
eigenvalues:  0.1297387 0.1676306 0.1715781 0.4063777 0.4191349
 eigenvectors
 1   0.8306757  0.0000000 -0.0000000  0.0000000  0.5567566
 2   0.0000000  0.7071068  0.7071068 -0.0000000 -0.0000000
 3  -0.0000000  0.0000000  0.0000000  1.0000000  0.0000000
 4  -0.0000000 -0.7071068  0.7071068 -0.0000000  0.0000000
 5  -0.5567566  0.0000000 -0.0000000 -0.0000000  0.8306757
 occupations
 0.219 -0.000 -0.000  0.000 -0.134
-0.000  0.287 -0.119  0.000  0.000
-0.000 -0.119  0.287 -0.000  0.000
 0.000  0.000 -0.000  0.172 -0.000
-0.134  0.000  0.000 -0.000  0.329
atom   11   Tr[ns(na)]=   5.0997110
atom   11   spin  1
eigenvalues:  0.5542468 0.5895532 0.7675205 0.9055776 0.9883540
 eigenvectors
 1  -0.0000000 -0.7071068  0.7071068  0.0000000  0.0000000
 2  -0.5424757 -0.0000000 -0.0000000  0.0000000  0.8400715
 3   0.0000000 -0.0000000 -0.0000000  1.0000000 -0.0000000
 4   0.0000000 -0.7071068 -0.7071068 -0.0000000 -0.0000000
 5   0.8400715  0.0000000  0.0000000 -0.0000000  0.5424757
 occupations
 0.871 -0.000 -0.000  0.000  0.182
-0.000  0.730  0.176  0.000  0.000
-0.000  0.176  0.730  0.000  0.000
 0.000  0.000  0.000  0.768 -0.000
 0.182  0.000  0.000 -0.000  0.707
atom   11   spin  2
eigenvalues:  0.1297386 0.1676304 0.1715780 0.4063774 0.4191346
 eigenvectors
 1   0.8306757  0.0000000 -0.0000000  0.0000000  0.5567566
 2  -0.0000000 -0.7071068 -0.7071068  0.0000000  0.0000000
 3   0.0000000 -0.0000000 -0.0000000 -1.0000000 -0.0000000
 4  -0.0000000 -0.7071068  0.7071068 -0.0000000  0.0000000
 5  -0.5567566  0.0000000 -0.0000000 -0.0000000  0.8306757
 occupations
 0.219 -0.000 -0.000  0.000 -0.134
-0.000  0.287 -0.119  0.000  0.000
-0.000 -0.119  0.287 -0.000  0.000
 0.000  0.000 -0.000  0.172 -0.000
-0.134  0.000  0.000 -0.000  0.329
atom   12   Tr[ns(na)]=   5.0997110
atom   12   spin  1
eigenvalues:  0.5542468 0.5895532 0.7675205 0.9055776 0.9883540
 eigenvectors
 1  -0.0000000 -0.7071068  0.7071068  0.0000000  0.0000000
 2  -0.5424757 -0.0000000 -0.0000000  0.0000000  0.8400715
 3   0.0000000 -0.0000000 -0.0000000  1.0000000 -0.0000000
 4   0.0000000 -0.7071068 -0.7071068 -0.0000000 -0.0000000
 5   0.8400715  0.0000000  0.0000000 -0.0000000  0.5424757
 occupations
 0.871 -0.000 -0.000  0.000  0.182
-0.000  0.730  0.176  0.000  0.000
-0.000  0.176  0.730  0.000  0.000
 0.000  0.000  0.000  0.768 -0.000
 0.182  0.000  0.000 -0.000  0.707
atom   12   spin  2
eigenvalues:  0.1297386 0.1676304 0.1715780 0.4063774 0.4191346
 eigenvectors
 1   0.8306757  0.0000000 -0.0000000  0.0000000  0.5567566
 2  -0.0000000 -0.7071068 -0.7071068  0.0000000  0.0000000
 3   0.0000000 -0.0000000 -0.0000000 -1.0000000 -0.0000000
 4  -0.0000000 -0.7071068  0.7071068 -0.0000000  0.0000000
 5  -0.5567566  0.0000000 -0.0000000 -0.0000000  0.8306757
 occupations
 0.219 -0.000 -0.000  0.000 -0.134
-0.000  0.287 -0.119  0.000  0.000
-0.000 -0.119  0.287 -0.000  0.000
 0.000  0.000 -0.000  0.172 -0.000
-0.134  0.000  0.000 -0.000  0.329
atom   13   Tr[ns(na)]=   5.0997107
atom   13   spin  1
eigenvalues:  0.5542472 0.5895531 0.7675203 0.9055774 0.9883540
 eigenvectors
 1   0.0000000 -0.7071068 -0.7071068  0.0000000  0.0000000
 2   0.5424756  0.0000000  0.0000000  0.0000000  0.8400715
 3  -0.0000000 -0.0000000  0.0000000  1.0000000  0.0000000
 4  -0.0000000 -0.7071068  0.7071068 -0.0000000  0.0000000
 5  -0.8400715 -0.0000000 -0.0000000 -0.0000000  0.5424756
 occupations
 0.871  0.000  0.000  0.000 -0.182
 0.000  0.730 -0.176  0.000 -0.000
 0.000 -0.176  0.730 -0.000 -0.000
 0.000  0.000 -0.000  0.768 -0.000
-0.182 -0.000 -0.000 -0.000  0.707
atom   13   spin  2
eigenvalues:  0.1297386 0.1676304 0.1715779 0.4063774 0.4191345
 eigenvectors
 1  -0.8306757 -0.0000000 -0.0000000  0.0000000  0.5567566
 2  -0.0000000  0.7071068 -0.7071068  0.0000001  0.0000000
 3   0.0000000 -0.0000001  0.0000001  1.0000000 -0.0000000
 4   0.0000000 -0.7071068 -0.7071068 -0.0000000  0.0000000
 5   0.5567566  0.0000000  0.0000000 -0.0000000  0.8306757
 occupations
 0.219 -0.000 -0.000 -0.000  0.134
-0.000  0.287  0.119 -0.000  0.000
-0.000  0.119  0.287  0.000  0.000
-0.000 -0.000  0.000  0.172 -0.000
 0.134  0.000  0.000 -0.000  0.329
atom   14   Tr[ns(na)]=   5.0997085
atom   14   spin  1
eigenvalues:  0.5542469 0.5895529 0.7675198 0.9055769 0.9883540
 eigenvectors
 1   0.0000000 -0.7071068 -0.7071068  0.0000000  0.0000000
 2   0.5424757  0.0000000  0.0000000  0.0000000  0.8400715
 3   0.0000000  0.0000000 -0.0000000 -1.0000000 -0.0000000
 4   0.0000000  0.7071068 -0.7071068  0.0000000 -0.0000000
 5  -0.8400715  0.0000000 -0.0000000 -0.0000000  0.5424757
 occupations
 0.871 -0.000 -0.000  0.000 -0.182
-0.000  0.730 -0.176  0.000  0.000
-0.000 -0.176  0.730  0.000  0.000
 0.000  0.000  0.000  0.768 -0.000
-0.182  0.000  0.000 -0.000  0.707
atom   14   spin  2
eigenvalues:  0.1297385 0.1676303 0.1715778 0.4063772 0.4191343
 eigenvectors
 1  -0.8306757 -0.0000000  0.0000000  0.0000000  0.5567566
 2  -0.0000000  0.7071068 -0.7071068 -0.0000000  0.0000000
 3   0.0000000  0.0000000 -0.0000000  1.0000000 -0.0000000
 4   0.0000000 -0.7071068 -0.7071068 -0.0000000  0.0000000
 5   0.5567566  0.0000000  0.0000000 -0.0000000  0.8306757
 occupations
 0.219 -0.000 -0.000 -0.000  0.134
-0.000  0.287  0.119  0.000  0.000
-0.000  0.119  0.287  0.000  0.000
-0.000  0.000  0.000  0.172 -0.000
 0.134  0.000  0.000 -0.000  0.329
atom   15   Tr[ns(na)]=   5.0997107
atom   15   spin  1
eigenvalues:  0.5542472 0.5895531 0.7675203 0.9055774 0.9883540
 eigenvectors
 1  -0.0000000 -0.7071068 -0.7071068  0.0000000 -0.0000000
 2   0.5424756 -0.0000000 -0.0000000  0.0000000  0.8400715
 3  -0.0000000  0.0000000 -0.0000000  1.0000000  0.0000000
 4  -0.0000000 -0.7071068  0.7071068  0.0000000  0.0000000
 5  -0.8400715  0.0000000  0.0000000 -0.0000000  0.5424756
 occupations
 0.871 -0.000 -0.000  0.000 -0.182
-0.000  0.730 -0.176 -0.000  0.000
-0.000 -0.176  0.730  0.000  0.000
 0.000 -0.000  0.000  0.768 -0.000
-0.182  0.000  0.000 -0.000  0.707
atom   15   spin  2
eigenvalues:  0.1297386 0.1676304 0.1715779 0.4063774 0.4191345
 eigenvectors
 1  -0.8306757  0.0000000  0.0000000  0.0000000  0.5567566
 2  -0.0000000  0.7071068 -0.7071068 -0.0000001  0.0000000
 3   0.0000000  0.0000001 -0.0000001  1.0000000 -0.0000000
 4  -0.0000000 -0.7071068 -0.7071068 -0.0000000 -0.0000000
 5   0.5567566 -0.0000000 -0.0000000 -0.0000000  0.8306757
 occupations
 0.219  0.000  0.000 -0.000  0.134
 0.000  0.287  0.119  0.000 -0.000
 0.000  0.119  0.287 -0.000 -0.000
-0.000  0.000 -0.000  0.172 -0.000
 0.134 -0.000 -0.000 -0.000  0.329
atom   16   Tr[ns(na)]=   5.0997107
atom   16   spin  1
eigenvalues:  0.5542472 0.5895531 0.7675203 0.9055774 0.9883540
 eigenvectors
 1  -0.0000000  0.7071068  0.7071068  0.0000000 -0.0000000
 2   0.5424756 -0.0000000  0.0000000  0.0000000  0.8400715
 3  -0.0000000 -0.0000000 -0.0000000  1.0000000  0.0000000
 4  -0.0000000  0.7071068 -0.7071068  0.0000000  0.0000000
 5  -0.8400715 -0.0000000  0.0000000 -0.0000000  0.5424756
 occupations
 0.871  0.000 -0.000  0.000 -0.182
 0.000  0.730 -0.176 -0.000  0.000
-0.000 -0.176  0.730 -0.000 -0.000
 0.000 -0.000 -0.000  0.768 -0.000
-0.182  0.000 -0.000 -0.000  0.707
atom   16   spin  2
eigenvalues:  0.1297386 0.1676304 0.1715779 0.4063774 0.4191345
 eigenvectors
 1  -0.8306757  0.0000000 -0.0000000  0.0000000  0.5567566
 2   0.0000000  0.7071068 -0.7071068 -0.0000000 -0.0000000
 3   0.0000000 -0.0000000 -0.0000000  1.0000000 -0.0000000
 4   0.0000000 -0.7071068 -0.7071068 -0.0000000  0.0000000
 5   0.5567566  0.0000000 -0.0000000 -0.0000000  0.8306757
 occupations
 0.219  0.000 -0.000 -0.000  0.134
 0.000  0.287  0.119  0.000  0.000
-0.000  0.119  0.287  0.000 -0.000
-0.000  0.000  0.000  0.172 -0.000
 0.134  0.000 -0.000 -0.000  0.329
atom   17   Tr[ns(na)]=   5.0997086
atom   17   spin  1
eigenvalues:  0.5542469 0.5895529 0.7675198 0.9055769 0.9883540
 eigenvectors
 1   0.0000000 -0.7071068 -0.7071068  0.0000000  0.0000000
 2   0.5424757  0.0000000  0.0000000  0.0000000  0.8400715
 3  -0.0000000 -0.0000000  0.0000000  1.0000000  0.0000000
 4  -0.0000000 -0.7071068  0.7071068 -0.0000000  0.0000000
 5  -0.8400715  0.0000000 -0.0000000 -0.0000000  0.5424757
 occupations
 0.871 -0.000 -0.000  0.000 -0.182
-0.000  0.730 -0.176  0.000  0.000
-0.000 -0.176  0.730  0.000  0.000
 0.000  0.000  0.000  0.768 -0.000
-0.182  0.000  0.000 -0.000  0.707
atom   17   spin  2
eigenvalues:  0.1297385 0.1676303 0.1715778 0.4063772 0.4191343
 eigenvectors
 1  -0.8306757 -0.0000000  0.0000000  0.0000000  0.5567566
 2  -0.0000000  0.7071068 -0.7071068 -0.0000000  0.0000000
 3   0.0000000  0.0000000 -0.0000000  1.0000000 -0.0000000
 4   0.0000000 -0.7071068 -0.7071068 -0.0000000  0.0000000
 5   0.5567566  0.0000000  0.0000000 -0.0000000  0.8306757
 occupations
 0.219 -0.000 -0.000 -0.000  0.134
-0.000  0.287  0.119  0.000  0.000
-0.000  0.119  0.287  0.000  0.000
-0.000  0.000  0.000  0.172 -0.000
 0.134  0.000  0.000 -0.000  0.329
atom   18   Tr[ns(na)]=   5.0997107
atom   18   spin  1
eigenvalues:  0.5542472 0.5895531 0.7675203 0.9055774 0.9883540
 eigenvectors
 1  -0.0000000  0.7071068  0.7071068 -0.0000000 -0.0000000
 2   0.5424756  0.0000000 -0.0000000  0.0000000  0.8400715
 3  -0.0000000  0.0000000  0.0000000  1.0000000  0.0000000
 4   0.0000000  0.7071068 -0.7071068  0.0000000 -0.0000000
 5  -0.8400715  0.0000000 -0.0000000 -0.0000000  0.5424756
 occupations
 0.871 -0.000  0.000  0.000 -0.182
-0.000  0.730 -0.176  0.000 -0.000
 0.000 -0.176  0.730  0.000  0.000
 0.000  0.000  0.000  0.768 -0.000
-0.182 -0.000  0.000 -0.000  0.707
atom   18   spin  2
eigenvalues:  0.1297386 0.1676304 0.1715779 0.4063774 0.4191345
 eigenvectors
 1  -0.8306757 -0.0000000  0.0000000  0.0000000  0.5567566
 2  -0.0000000  0.7071068 -0.7071068 -0.0000000  0.0000000
 3   0.0000000  0.0000000  0.0000000  1.0000000 -0.0000000
 4   0.0000000 -0.7071068 -0.7071068  0.0000000  0.0000000
 5   0.5567566 -0.0000000  0.0000000 -0.0000000  0.8306757
 occupations
 0.219 -0.000  0.000 -0.000  0.134
-0.000  0.287  0.119 -0.000 -0.000
 0.000  0.119  0.287 -0.000  0.000
-0.000 -0.000 -0.000  0.172 -0.000
 0.134 -0.000  0.000 -0.000  0.329
atom   19   Tr[ns(na)]=   5.0997107
atom   19   spin  1
eigenvalues:  0.5542472 0.5895531 0.7675203 0.9055774 0.9883540
 eigenvectors
 1  -0.0000000  0.7071068  0.7071068 -0.0000000 -0.0000000
 2   0.5424756  0.0000000 -0.0000000  0.0000000  0.8400715
 3  -0.0000000  0.0000000  0.0000000  1.0000000  0.0000000
 4   0.0000000  0.7071068 -0.7071068  0.0000000 -0.0000000
 5  -0.8400715  0.0000000 -0.0000000 -0.0000000  0.5424756
 occupations
 0.871 -0.000  0.000  0.000 -0.182
-0.000  0.730 -0.176  0.000 -0.000
 0.000 -0.176  0.730  0.000  0.000
 0.000  0.000  0.000  0.768 -0.000
-0.182 -0.000  0.000 -0.000  0.707
atom   19   spin  2
eigenvalues:  0.1297386 0.1676304 0.1715779 0.4063774 0.4191345
 eigenvectors
 1  -0.8306757 -0.0000000  0.0000000  0.0000000  0.5567566
 2  -0.0000000  0.7071068 -0.7071068 -0.0000000  0.0000000
 3   0.0000000  0.0000000  0.0000000  1.0000000 -0.0000000
 4   0.0000000 -0.7071068 -0.7071068  0.0000000  0.0000000
 5   0.5567566 -0.0000000  0.0000000 -0.0000000  0.8306757
 occupations
 0.219 -0.000  0.000 -0.000  0.134
-0.000  0.287  0.119 -0.000 -0.000
 0.000  0.119  0.287 -0.000  0.000
-0.000 -0.000 -0.000  0.172 -0.000
 0.134 -0.000  0.000 -0.000  0.329
atom   20   Tr[ns(na)]=   5.0997086
atom   20   spin  1
eigenvalues:  0.5542469 0.5895529 0.7675198 0.9055769 0.9883540
 eigenvectors
 1   0.0000000 -0.7071068 -0.7071068  0.0000000  0.0000000
 2   0.5424757  0.0000000  0.0000000  0.0000000  0.8400715
 3  -0.0000000 -0.0000000  0.0000000  1.0000000  0.0000000
 4  -0.0000000 -0.7071068  0.7071068 -0.0000000  0.0000000
 5  -0.8400715  0.0000000 -0.0000000 -0.0000000  0.5424757
 occupations
 0.871 -0.000 -0.000  0.000 -0.182
-0.000  0.730 -0.176  0.000  0.000
-0.000 -0.176  0.730  0.000  0.000
 0.000  0.000  0.000  0.768 -0.000
-0.182  0.000  0.000 -0.000  0.707
atom   20   spin  2
eigenvalues:  0.1297385 0.1676303 0.1715778 0.4063772 0.4191343
 eigenvectors
 1  -0.8306757 -0.0000000  0.0000000  0.0000000  0.5567566
 2  -0.0000000  0.7071068 -0.7071068 -0.0000000  0.0000000
 3   0.0000000  0.0000000 -0.0000000  1.0000000 -0.0000000
 4   0.0000000 -0.7071068 -0.7071068 -0.0000000  0.0000000
 5   0.5567566  0.0000000  0.0000000 -0.0000000  0.8306757
 occupations
 0.219 -0.000 -0.000 -0.000  0.134
-0.000  0.287  0.119  0.000  0.000
-0.000  0.119  0.287  0.000  0.000
-0.000  0.000  0.000  0.172 -0.000
 0.134  0.000  0.000 -0.000  0.329
atom   21   Tr[ns(na)]=   5.0997107
atom   21   spin  1
eigenvalues:  0.5542472 0.5895531 0.7675203 0.9055774 0.9883540
 eigenvectors
 1  -0.0000000  0.7071068  0.7071068  0.0000000 -0.0000000
 2   0.5424756 -0.0000000  0.0000000  0.0000000  0.8400715
 3  -0.0000000 -0.0000000 -0.0000000  1.0000000  0.0000000
 4  -0.0000000  0.7071068 -0.7071068  0.0000000  0.0000000
 5  -0.8400715 -0.0000000  0.0000000 -0.0000000  0.5424756
 occupations
 0.871  0.000 -0.000  0.000 -0.182
 0.000  0.730 -0.176 -0.000  0.000
-0.000 -0.176  0.730 -0.000 -0.000
 0.000 -0.000 -0.000  0.768 -0.000
-0.182  0.000 -0.000 -0.000  0.707
atom   21   spin  2
eigenvalues:  0.1297386 0.1676304 0.1715779 0.4063774 0.4191345
 eigenvectors
 1  -0.8306757  0.0000000 -0.0000000  0.0000000  0.5567566
 2   0.0000000  0.7071068 -0.7071068 -0.0000000 -0.0000000
 3   0.0000000 -0.0000000 -0.0000000  1.0000000 -0.0000000
 4   0.0000000 -0.7071068 -0.7071068 -0.0000000  0.0000000
 5   0.5567566  0.0000000 -0.0000000 -0.0000000  0.8306757
 occupations
 0.219  0.000 -0.000 -0.000  0.134
 0.000  0.287  0.119  0.000  0.000
-0.000  0.119  0.287  0.000 -0.000
-0.000  0.000  0.000  0.172 -0.000
 0.134  0.000 -0.000 -0.000  0.329
atom   22   Tr[ns(na)]=   5.0997107
atom   22   spin  1
eigenvalues:  0.5542472 0.5895531 0.7675203 0.9055774 0.9883540
 eigenvectors
 1  -0.0000000 -0.7071068 -0.7071068  0.0000000 -0.0000000
 2   0.5424756 -0.0000000 -0.0000000  0.0000000  0.8400715
 3  -0.0000000  0.0000000 -0.0000000  1.0000000  0.0000000
 4  -0.0000000 -0.7071068  0.7071068  0.0000000  0.0000000
 5  -0.8400715  0.0000000  0.0000000 -0.0000000  0.5424756
 occupations
 0.871 -0.000 -0.000  0.000 -0.182
-0.000  0.730 -0.176 -0.000  0.000
-0.000 -0.176  0.730  0.000  0.000
 0.000 -0.000  0.000  0.768 -0.000
-0.182  0.000  0.000 -0.000  0.707
atom   22   spin  2
eigenvalues:  0.1297386 0.1676304 0.1715779 0.4063774 0.4191345
 eigenvectors
 1  -0.8306757  0.0000000  0.0000000  0.0000000  0.5567566
 2  -0.0000000  0.7071068 -0.7071068 -0.0000001  0.0000000
 3   0.0000000  0.0000001 -0.0000001  1.0000000 -0.0000000
 4  -0.0000000 -0.7071068 -0.7071068 -0.0000000 -0.0000000
 5   0.5567566 -0.0000000 -0.0000000 -0.0000000  0.8306757
 occupations
 0.219  0.000  0.000 -0.000  0.134
 0.000  0.287  0.119  0.000 -0.000
 0.000  0.119  0.287 -0.000 -0.000
-0.000  0.000 -0.000  0.172 -0.000
 0.134 -0.000 -0.000 -0.000  0.329
atom   23   Tr[ns(na)]=   5.0997085
atom   23   spin  1
eigenvalues:  0.5542469 0.5895529 0.7675198 0.9055769 0.9883540
 eigenvectors
 1   0.0000000 -0.7071068 -0.7071068  0.0000000  0.0000000
 2   0.5424757  0.0000000  0.0000000  0.0000000  0.8400715
 3   0.0000000  0.0000000 -0.0000000 -1.0000000 -0.0000000
 4   0.0000000  0.7071068 -0.7071068  0.0000000 -0.0000000
 5  -0.8400715  0.0000000 -0.0000000 -0.0000000  0.5424757
 occupations
 0.871 -0.000 -0.000  0.000 -0.182
-0.000  0.730 -0.176  0.000  0.000
-0.000 -0.176  0.730  0.000  0.000
 0.000  0.000  0.000  0.768 -0.000
-0.182  0.000  0.000 -0.000  0.707
atom   23   spin  2
eigenvalues:  0.1297385 0.1676303 0.1715778 0.4063772 0.4191343
 eigenvectors
 1  -0.8306757 -0.0000000  0.0000000  0.0000000  0.5567566
 2  -0.0000000  0.7071068 -0.7071068 -0.0000000  0.0000000
 3   0.0000000  0.0000000 -0.0000000  1.0000000 -0.0000000
 4   0.0000000 -0.7071068 -0.7071068 -0.0000000  0.0000000
 5   0.5567566  0.0000000  0.0000000 -0.0000000  0.8306757
 occupations
 0.219 -0.000 -0.000 -0.000  0.134
-0.000  0.287  0.119  0.000  0.000
-0.000  0.119  0.287  0.000  0.000
-0.000  0.000  0.000  0.172 -0.000
 0.134  0.000  0.000 -0.000  0.329
atom   24   Tr[ns(na)]=   5.0997107
atom   24   spin  1
eigenvalues:  0.5542472 0.5895531 0.7675203 0.9055774 0.9883540
 eigenvectors
 1   0.0000000 -0.7071068 -0.7071068  0.0000000  0.0000000
 2   0.5424756  0.0000000  0.0000000  0.0000000  0.8400715
 3  -0.0000000 -0.0000000  0.0000000  1.0000000  0.0000000
 4  -0.0000000 -0.7071068  0.7071068 -0.0000000  0.0000000
 5  -0.8400715 -0.0000000 -0.0000000 -0.0000000  0.5424756
 occupations
 0.871  0.000  0.000  0.000 -0.182
 0.000  0.730 -0.176  0.000 -0.000
 0.000 -0.176  0.730 -0.000 -0.000
 0.000  0.000 -0.000  0.768 -0.000
-0.182 -0.000 -0.000 -0.000  0.707
atom   24   spin  2
eigenvalues:  0.1297386 0.1676304 0.1715779 0.4063774 0.4191345
 eigenvectors
 1  -0.8306757 -0.0000000 -0.0000000  0.0000000  0.5567566
 2  -0.0000000  0.7071068 -0.7071068  0.0000001  0.0000000
 3   0.0000000 -0.0000001  0.0000001  1.0000000 -0.0000000
 4   0.0000000 -0.7071068 -0.7071068 -0.0000000  0.0000000
 5   0.5567566  0.0000000  0.0000000 -0.0000000  0.8306757
 occupations
 0.219 -0.000 -0.000 -0.000  0.134
-0.000  0.287  0.119 -0.000  0.000
-0.000  0.119  0.287  0.000  0.000
-0.000 -0.000  0.000  0.172 -0.000
 0.134  0.000  0.000 -0.000  0.329
nsum = 122.3930775
 exit write_ns
 Atomic wfc used for LDA+U Projector are NOT orthogonalized
     Starting wfc are  432 atomic +  690 random wfc

     total cpu time spent up to now is      5.98 secs

     per-process dynamical memory:    72.3 Mb

     Band Structure Calculation
     Davidson diagonalization with overlap

     ethr =  1.60E-12,  avg # of iterations = 57.0

     total cpu time spent up to now is   2230.24 secs

     End of band structure calculation

 ------ SPIN UP ------------


          k = 0.0000 0.0000 0.0000     band energies (ev):

   -62.7316 -62.7316 -62.7281 -62.7280 -62.7280 -62.7279 -62.7279 -62.7271
   -62.7184 -62.7184 -62.7167 -62.7167 -62.7166 -62.7166 -62.7166 -62.7166
   -62.7165 -62.7165 -62.7159 -62.7159 -62.7158 -62.7158 -62.7137 -62.7137
   -34.1368 -34.1367 -34.1337 -34.1336 -34.1261 -34.1261 -34.1261 -34.1261
   -34.1205 -34.1205 -34.1204 -34.1204 -34.1204 -34.1204 -34.1203 -34.1203
   -34.1202 -34.1202 -34.1202 -34.1201 -34.1187 -34.1186 -34.1186 -34.1185
   -34.0636 -34.0636 -34.0636 -34.0636 -34.0544 -34.0544 -34.0533 -34.0533
   -34.0527 -34.0526 -34.0515 -34.0515 -34.0515 -34.0515 -34.0514 -34.0514
   -34.0514 -34.0514 -34.0484 -34.0483 -34.0483 -34.0482 -34.0433 -34.0433
   -34.0413 -34.0412 -34.0412 -34.0412 -34.0410 -34.0410 -34.0410 -34.0409
   -34.0360 -34.0360 -34.0360 -34.0360 -34.0360 -34.0360 -34.0360 -34.0360
   -33.9347 -33.9276 -33.9276 -33.9275 -33.9275 -33.9275 -33.9274 -33.9203
    -8.9047  -8.0514  -8.0514  -8.0514  -8.0514  -8.0374  -8.0373  -8.0022
    -8.0022  -7.5002  -7.5002  -7.5002  -7.5002  -7.5002  -7.5002  -7.5002
    -7.5002  -7.4076  -7.4076  -7.4076  -7.4075  -7.2666  -7.0979  -7.0979
    -7.0887  -7.0887  -7.0886  -7.0886  -7.0074  -7.0074  -7.0074  -7.0074
    -7.0074  -7.0074  -7.0073  -7.0073  -6.9280  -6.9280  -6.9280  -6.9280
    -6.9224  -6.9224  -6.8956  -6.8956  -6.8956  -6.8956  -6.7197  -6.7196
     2.4756   2.9736   2.9737   3.3727   3.5550   3.5550   3.5550   3.5550
     3.7036   3.8219   3.8219   3.8219   3.8219   3.8219   3.8219   3.8219
     3.8219   3.9014   3.9014   3.9014   3.9014   3.9228   3.9228   4.0867
     4.0867   4.0867   4.0868   4.3993   4.3993   4.7009   4.7009   4.7010
     4.7010   4.9204   4.9204   4.9204   4.9204   4.9204   4.9204   4.9205
     4.9205   5.0464   5.0464   5.2031   5.2031   5.3027   5.3028   5.3855
     5.3855   5.5366   5.5366   5.5366   5.5366   5.5682   5.5682   5.5682
     5.5682   5.5682   5.5682   5.5682   5.5682   5.6511   5.6511   5.6511
     5.6511   5.6561   5.6561   5.6561   5.6562   5.7965   5.7965   6.0945
     6.0945   6.0945   6.0945   6.4625   6.4625   6.4625   6.4625   6.4625
     6.4625   6.4625   6.4625   6.5402   6.5403   6.9378   6.9378   6.9378
     6.9379   6.9482   6.9482   6.9483   6.9483   6.9601   6.9601   6.9601
     6.9601   6.9946   6.9946   7.1035   7.1035   7.1276   7.1276   7.1276
     7.1276   7.1276   7.1276   7.1276   7.1276   7.2050   7.2050   7.2050
     7.2051   7.4993   7.7878   7.8663   7.8663   8.0232   8.0232   8.0625
     8.0625   8.0625   8.0625   8.0625   8.0625   8.0625   8.0625   8.0678
     8.0679   8.0679   8.0679   8.3938   8.3939   8.4297   8.4297   8.4449
     8.4449   8.4933   8.5437   8.7068   8.7068   8.8480   8.8480   8.8619
     8.8620   8.8620   8.8620   8.8982   8.8983   8.8983   8.8984   8.9374
     8.9374   8.9375   8.9375   9.2417   9.2417   9.3436   9.4268   9.4268
     9.4268   9.4268   9.4268   9.4268   9.4268   9.4268   9.5001   9.5001
     9.5001   9.5001   9.7277   9.7277   9.7277   9.7277   9.7277   9.7277
     9.7277   9.7277   9.8437   9.8437   9.8568   9.8568   9.8568   9.8568
     9.9986   9.9986  10.0074  10.0074  10.0074  10.0075  10.4687  10.7072
    10.7072  10.7072  10.7072  10.7214  10.7214  10.7215  10.7215  10.9337
    10.9338  10.9338  10.9338  11.0147  11.0147  11.1411  11.1411  11.1411
    11.1411  11.1411  11.1411  11.1412  11.1412  11.4701  11.4702  11.6023
    11.6739  12.4135  12.4135  12.4135  12.4135  12.4136  12.4136  12.4136
    12.4136  12.6843  12.6843  13.3789  13.3789  13.5482  13.5483  13.5483
    13.5483  13.6215  13.6216  13.6216  13.6216  13.8005  13.8006  13.8006
    13.8006  14.0047  14.0047  14.0694  14.0694  14.0694  14.0694  14.0882
    14.0882  14.0883  14.0883  14.3736  14.3737  14.3984  14.3985  14.8327
    14.8327  14.8327  14.8327  14.8328  14.8328  14.8328  14.8328  15.4849
    18.3085  20.7236  20.7236  20.7236  20.7236  21.0680  21.0680  21.5480
    21.5480  22.0434  22.0434  22.3979  22.3979  22.3979  22.3979  22.4928
    22.4928  22.4928  22.4928  22.4928  22.4928  22.4928  22.4928  23.1801
    23.1801  23.3020  23.3020  23.3020  23.3020  24.1825  24.1825  24.1825
    24.1825  24.4835  24.4835  24.5113  24.5915  24.5915  24.5916  24.5916
    25.3332  25.3332  25.3592  25.3592  25.3592  25.3592  25.3592  25.3592
    25.3592  25.3592  25.6212  25.6212  25.6213  25.6213  25.6231  25.6827
    25.6827  25.9122  25.9122  25.9122  25.9122  25.9123  25.9123  25.9123
    25.9123  26.0326  26.2498  26.2498  26.2498  26.2498  26.8986  26.8987
    26.8987  26.8987  26.9005  26.9005  26.9005  26.9005  26.9005  26.9005
    26.9005  26.9005  26.9362  26.9362  27.1470  27.1470  27.6985  27.6985
    27.9222  27.9222  28.0356  28.0356  28.0356  28.0356  28.0357  28.0357
    28.0357  28.0357  28.0486  28.0486  28.2368  28.2368  28.2368  28.2368
    28.2567  28.2567  28.2567  28.2567  28.4491  28.4492  28.4492  28.4492
    28.5009  28.7127  28.7127  28.7127  28.7127  28.7127  28.7127  28.7127
    28.7127  29.7390  29.8269  29.8269  29.9112  29.9680  29.9680  29.9680
    29.9680  29.9881  29.9881  30.1034  30.1035  30.1035  30.1035  31.4622
    31.4622  31.9871  31.9871  31.9871  31.9871  32.1295  32.1295  32.1296
    32.1296  32.1645  32.1645  32.2735  32.2735  32.5451  32.5451  32.5451
    32.5451  32.6364  32.6364  33.2039  33.2039  33.2039  33.2039  33.2039
    33.2039  33.2039  33.2039  33.7892  34.1472  34.1472  34.1472  34.1472
    34.2772  34.2772  34.2772  34.2772  34.5381  34.5382  34.5382  34.5382
    35.0035  35.3501  35.3501  35.3922  35.3922  36.1538  36.1538  36.2959
    36.2959  36.2959  36.2959  36.5765  36.5765  36.5765  36.5765  36.6439
    36.6439  36.6439  36.6439  36.8609  37.0650  37.0650  37.2720  37.2975
    37.2975  37.2975  37.2975  37.2975  37.2975  37.2975  37.2975  37.3530
    37.3530  37.5621  37.5621  37.5621  37.5621  37.5621  37.5621  37.5621
    37.5621  37.7634  37.7634  38.1051  38.1051  38.1311  38.1311  38.1311
    38.1311  38.2608  38.2608  38.2608  38.2608  38.3856  38.3856  38.3964
    38.3964  38.3964  38.3964  38.3964  38.3964  38.3964  38.3964  39.1868
    39.3852  39.3852  40.2615  40.2615  40.2615  40.2615  40.2862  40.2862
    40.2862  40.2862  40.2862  40.2862  40.2862  40.2862  40.3791  40.5170
    40.5170  40.5170  40.5170  40.6578  40.6578  40.6578  40.6578  40.6579
    40.6579  40.6579  40.6579  40.8106  40.8106  40.8106  40.8106  41.2945
    41.3163  41.3163  41.7592  41.7592  41.8177  41.8177  42.6385  42.6385
    42.6385  42.6385  43.1658  43.1658  43.5810  43.5810  43.5811  43.5811
    43.7554  43.7554  43.7779  43.9088  43.9089  43.9089  43.9089  44.0186
    44.0186  44.0186  44.0186  44.3234  44.3234  44.3234  44.3234  44.5629
    44.5629  44.7315  44.7315  44.7830  44.7830  44.7830  44.7830  44.7830
    44.7830  44.7830  44.7830  44.8830  44.8830  44.9092  44.9092  44.9092
    44.9092  45.6190  45.6190  45.7214  46.6002  46.6002  46.6002  46.6002
    46.7249  46.7249  46.7249  46.7249  46.7249  46.7249  46.7249  46.7249
    46.9110  46.9110  46.9110  46.9110  46.9219  46.9219  47.3283  47.3283
    47.3283  47.3283  47.3283  47.3283  47.3283  47.3283  47.5930  47.5930
    47.5930  47.5930  47.6114  47.6114  47.6834  47.6834  47.6834  47.6835
    47.8830  48.2171  48.2171  48.4646  48.4646  48.4646  48.4646  48.6028
    48.6028  48.6028  48.6028  48.7736  48.7736  48.7736  48.7736  48.7736
    48.7736  48.7736  48.7736  48.8257  48.8257  48.8467  48.8467  49.0020
    49.4722  49.4722  49.4722  49.4722  49.5479  49.5479  49.5721  49.5721
    49.6214  49.6214  49.9907  49.9907  49.9907  49.9907  50.3220  50.3220
    50.3220  50.3220  50.6690  50.6690  50.6690  50.6690  50.6690  50.6690
    50.6690  50.6690  50.7599  50.7599  50.7599  50.7599  50.8722  50.8722
    50.8722  50.8722  50.8722  50.8722  50.8722  50.8722  50.8739  50.8739
    50.9370  51.0912  51.0912  51.0912  51.0912  51.1096  51.1096  51.1096
    51.1096  51.1817  51.1817  51.5178  51.5178  51.5179  51.5179  51.6587
    51.6587  51.9156  51.9156  51.9156  51.9156  51.9156  51.9156  51.9156
    51.9156  52.1854  52.1854  52.1855  52.1855  52.2192  52.2768  52.2768
    52.2768  52.2768  52.8582  52.8582  52.8582  52.8582  52.9226  52.9226
    52.9226  52.9226  52.9826  53.0176  53.0176  53.0176  53.0176  53.5240
    53.5240  53.5240  53.5240  53.5240  53.5240  53.5240  53.5240  53.5477
    53.5477  53.5732  53.5732  53.6312  53.6312  53.6312  53.6312  53.8301
    53.8301  54.1453  54.1560  54.1560  54.6446  54.6446  54.6446  54.6446
    54.6752  54.6752  54.6752  54.6752  54.6964  54.6964  54.7313  54.7314
    54.8079  54.8079  54.9925  54.9925  55.0467  55.0468  55.0468  55.0468
    55.0468  55.0468  55.0468  55.0468  55.7929  55.7929  55.7929  55.7929
    55.8754  55.9137  55.9137  55.9137  55.9137  55.9137  55.9137  55.9137
    55.9137  55.9403  55.9403  56.1850  56.1850  56.4807  56.5133  56.5134
    56.5355  56.5875  56.5875  56.8349  56.8349  56.8349  56.8349  57.0723
    57.0723  57.0723  57.0723  57.0733  57.0733  57.5628  57.5628  57.5628
    57.5628  57.5628  57.5628  57.5628  57.5628  57.6714  57.6714  57.6714
    57.6714  57.8880  58.1117  58.1117  58.1117  58.1117  58.5130  58.5130
    58.5130  58.5130  58.5130  58.5130  58.5130  58.5130  58.7823  58.7823
    58.7823  58.7823  59.2949  59.2949  59.6380  59.6646  59.6646  59.6646
    59.6646  59.6646  59.6646  59.6646  59.6646  59.7546  59.7546  59.7546
    59.7546  60.2595  60.2595  60.2595  60.2595  60.2595  60.2595  60.2595
    60.2595  60.4143  60.4143  60.4143  60.4143  60.9226  60.9226  60.9226
    60.9226  60.9226  60.9226  60.9226  60.9226  60.9667  60.9667  60.9667
    60.9667  61.1177  61.1177  61.2315  61.2316  61.3653  61.3653  61.3653
    61.3653  61.5312  61.5312  61.7586  61.7586  62.3577  62.3577  62.3577
    62.3577  62.4227  62.4228  62.4228  62.4228  62.5040  62.5040  62.5040
    62.5040  62.5040  62.5040  62.5040  62.5040  62.8533  62.8533  63.4862
    63.4862  63.6172  63.6722  63.6722  63.6722  63.6722  63.8960  63.8960
    64.2109  64.2109  64.2109  64.2109  64.2109  64.2109  64.2109  64.2109
    64.2805  64.2805  64.3020  64.3401  64.3401  64.3401  64.3401  64.4881
    64.4881  64.6123  64.6123  64.6123  64.6123  64.6191  64.6191  64.7712
    64.7712  64.7712  64.7712  64.7971  64.7971  64.8825  64.8825  64.8825
    64.8825  64.9244  64.9244  64.9244  64.9244  64.9244  64.9244  64.9244
    64.9244  65.2913  65.2913  65.2913  65.2913  66.0546  66.0546  66.0546
    66.0547  66.1859  66.1859  66.2105  66.2105  66.2105  66.2105  66.3275
    66.3275  66.6237

 ------ SPIN DOWN ----------


          k = 0.0000 0.0000 0.0000     band energies (ev):

   -59.8492 -59.8439 -59.8439 -59.8438 -59.8438 -59.8409 -59.8408 -59.8391
   -59.8352 -59.8352 -59.8345 -59.8344 -59.8344 -59.8343 -59.8338 -59.8338
   -59.8337 -59.8337 -59.8337 -59.8337 -59.8336 -59.8336 -59.8334 -59.8334
   -31.4199 -31.4198 -31.4175 -31.4174 -31.4130 -31.4130 -31.4130 -31.4130
   -31.4043 -31.4043 -31.4043 -31.4042 -31.4041 -31.4041 -31.4040 -31.4040
   -31.4040 -31.4040 -31.4039 -31.4039 -31.4034 -31.4033 -31.4033 -31.4032
   -31.1872 -31.1872 -31.1872 -31.1872 -31.1825 -31.1824 -31.1819 -31.1819
   -31.1607 -31.1607 -31.1606 -31.1606 -31.1606 -31.1606 -31.1605 -31.1605
   -31.1583 -31.1583 -31.1583 -31.1583 -31.1583 -31.1583 -31.1582 -31.1582
   -31.0315 -31.0315 -31.0282 -31.0281 -31.0281 -31.0280 -31.0266 -31.0266
   -31.0266 -31.0266 -31.0265 -31.0265 -31.0265 -31.0265 -31.0255 -31.0255
   -30.8943 -30.8851 -30.8851 -30.8851 -30.8850 -30.8850 -30.8850 -30.8759
    -9.2149  -8.3522  -8.3522  -8.3522  -8.3522  -8.3373  -8.3373  -8.2118
    -8.2117  -7.8095  -7.8095  -7.8095  -7.8095  -7.8095  -7.8095  -7.8095
    -7.8095  -7.7064  -7.7064  -7.7064  -7.7063  -7.4499  -7.3987  -7.3987
    -7.3986  -7.3986  -7.3732  -7.3732  -7.3429  -7.3428  -7.3224  -7.3224
    -7.3224  -7.3224  -7.3224  -7.3224  -7.3224  -7.3224  -7.2606  -7.2606
    -7.2606  -7.2606  -7.2145  -7.2145  -7.2145  -7.2145  -7.1530  -7.1529
     3.8389   4.2697   4.2697   4.5834   4.5834   4.5834   4.5834   4.6856
     4.7521   4.7522   4.8467   4.8467   4.8467   4.8467   4.9324   4.9324
     4.9324   4.9324   5.0081   5.0800   5.0800   5.2686   5.2686   5.2686
     5.2686   5.2687   5.2687   5.2687   5.2687   5.4045   5.4045   5.4045
     5.4045   5.4045   5.4045   5.4045   5.4045   5.6832   5.6832   5.8263
     5.8263   5.8263   5.8263   6.0449   6.0449   6.0449   6.0449   6.0449
     6.0449   6.0449   6.0449   6.0520   6.0520   6.0950   6.0950   6.1685
     6.1685   6.1685   6.1685   6.1782   6.1783   6.4610   6.4610   6.4610
     6.4610   6.5290   6.5290   6.5290   6.5291   6.5455   6.5455   6.6197
     6.6197   6.6197   6.6197   6.6570   6.6570   6.6570   6.6570   6.6570
     6.6570   6.6570   6.6570   6.6704   6.6704   6.7552   6.7553   7.2768
     7.3850   7.3850   7.3851   7.3851   7.5928   7.5928   7.5928   7.5928
     7.7542   7.7542   7.9618   7.9618   7.9618   7.9618   7.9618   7.9618
     7.9618   7.9618   7.9839   7.9839   7.9839   7.9839   8.0676   8.0676
     8.0676   8.0677   8.1633   8.1633   8.1655   8.1656   8.1656   8.1656
     8.4208   8.4208   8.4731   8.4731   8.6092   8.6092   8.6092   8.6092
     8.6092   8.6092   8.6092   8.6092   8.6425   8.6425   8.6426   8.6426
     8.8366   8.8366   8.8366   8.8366   8.9871   9.2166   9.2166   9.6056
    13.2700  13.2700  13.3300  13.4419  13.4419  13.4419  13.4419  13.4420
    13.4420  13.4420  13.4420  13.4525  13.4592  13.5296  13.5296  13.6508
    13.6509  13.6727  13.6727  13.8766  13.8766  13.8766  13.8766  13.8952
    13.8952  13.8961  13.8962  13.8962  13.8963  14.0798  14.0798  14.0798
    14.0799  14.2784  14.2784  14.2784  14.2785  14.2981  14.2981  14.2981
    14.2982  14.3017  14.3017  14.3018  14.3018  14.3263  14.3263  14.3263
    14.3264  14.3794  14.4832  14.4832  14.4832  14.4832  14.4833  14.4833
    14.4833  14.4833  14.5043  14.5043  14.5410  14.5410  14.5472  14.5472
    14.6423  14.6423  14.6424  14.6424  14.6424  14.6424  14.6424  14.6424
    14.8359  14.8359  14.8360  14.8360  14.8360  14.8360  14.8360  14.8360
    15.1467  15.3697  15.3697  15.5478  15.5479  15.5479  15.5479  15.6014
    15.6014  15.6014  15.6015  15.7232  15.7232  15.7233  15.7233  15.8182
    15.8182  15.8980  15.8980  15.8980  15.8981  15.9570  15.9570  15.9571
    15.9571  15.9774  15.9774  16.2680  16.2681  16.2800  16.2801  16.5173
    16.5173  16.5173  16.5173  16.5174  16.5174  16.5174  16.5174  17.4992
    18.5628  20.8679  20.8679  20.8679  20.8679  21.1584  21.1584  21.9599
    21.9599  22.0403  22.0403  22.3963  22.3963  22.3964  22.3964  22.5423
    22.5423  22.5423  22.5423  22.5423  22.5423  22.5423  22.5423  23.7615
    23.7615  23.9130  23.9130  23.9130  23.9130  24.7932  24.7932  24.8143
    24.8143  24.8143  24.8143  25.0603  25.0603  25.0603  25.0603  25.4085
    25.5807  25.5807  25.6038  25.6038  25.6102  25.6199  25.6199  25.6199
    25.6199  25.6199  25.6199  25.6199  25.6199  25.7866  25.7866  25.7866
    25.7866  26.4826  26.4826  26.4826  26.4826  26.4826  26.4826  26.4826
    26.4826  26.4902  26.4902  26.4902  26.4902  26.6579  27.0486  27.0486
    27.1951  27.1951  27.1951  27.1951  27.1952  27.1952  27.1952  27.1952
    27.6602  27.6602  27.6602  27.6602  27.9870  27.9870  28.5290  28.5290
    28.6969  28.6969  28.9482  28.9482  28.9482  28.9482  28.9563  28.9563
    29.0012  29.0012  29.0012  29.0012  29.0012  29.0012  29.0012  29.0012
    29.0334  29.0334  29.0334  29.0335  29.0444  29.0444  29.0444  29.0444
    29.0861  29.5616  29.5616  29.5616  29.5616  29.5616  29.5616  29.5616
    29.5616  29.9033  30.4412  30.4412  30.6826  30.6827  30.6827  30.6827
    30.7573  30.7573  30.7573  30.7573  30.8723  31.1275  31.1275  32.0155
    32.0155  32.0541  32.0541  32.0541  32.0541  32.7226  32.7226  32.7817
    32.7817  33.1576  33.1576  33.2056  33.2056  33.2056  33.2056  33.4344
    33.4344  33.4345  33.4345  34.0050  34.0050  34.0050  34.0050  34.0051
    34.0051  34.0051  34.0051  34.0268  34.8170  34.8170  34.8170  34.8170
    34.9638  34.9638  34.9638  34.9638  35.1655  35.1655  35.1655  35.1656
    35.7788  35.7788  35.8886  35.9866  35.9866  36.8068  36.8068  36.8068
    36.8068  36.8519  36.8519  36.9781  36.9781  36.9781  36.9781  37.1537
    37.1537  37.1537  37.1537  37.2562  37.6302  37.6302  37.6302  37.6302
    37.6302  37.6302  37.6302  37.6302  37.7278  37.7278  37.8640  37.8652
    37.8652  37.8681  37.8681  37.8681  37.8681  37.8681  37.8681  37.8681
    37.8681  37.9298  37.9298  38.6717  38.6717  38.7613  38.7613  38.7839
    38.7839  38.7839  38.7839  38.9234  38.9234  38.9234  38.9234  38.9234
    38.9234  38.9234  38.9234  38.9309  38.9309  38.9309  38.9309  39.7765
    40.0491  40.0491  40.3339  40.3339  40.3339  40.3340  40.6613  40.6613
    40.6613  40.6613  40.6613  40.6613  40.6613  40.6613  41.1971  41.1971
    41.1971  41.1971  41.2105  41.2105  41.2105  41.2105  41.2194  41.2194
    41.2194  41.2194  41.2195  41.2195  41.2195  41.2195  41.5076  41.6825
    41.6825  42.0731  42.2461  42.2461  42.5983  42.5983  43.1626  43.1626
    43.1626  43.1626  43.5268  43.5268  43.8574  43.9106  43.9106  44.0471
    44.0471  44.0471  44.0471  44.2679  44.2679  44.2679  44.2679  44.2859
    44.2859  44.2859  44.2859  44.5872  44.5872  44.5872  44.5872  44.6254
    44.6254  45.1030  45.1030  45.3012  45.3012  45.3746  45.3746  45.3746
    45.3746  45.3746  45.3746  45.3746  45.3746  45.5212  45.5212  45.5212
    45.5212  46.2328  46.2328  46.2782  47.0346  47.0346  47.0346  47.0346
    47.0346  47.0346  47.0346  47.0346  47.2277  47.2277  47.2277  47.2277
    47.2311  47.2311  47.2311  47.2311  47.3370  47.3370  47.9161  47.9161
    47.9161  47.9161  48.0285  48.0285  48.0285  48.0285  48.0285  48.0285
    48.0285  48.0285  48.0375  48.0375  48.0952  48.3307  48.3307  48.3307
    48.3307  48.5397  48.5397  48.5398  48.5398  48.9913  48.9913  48.9913
    48.9913  48.9913  48.9913  48.9913  48.9913  49.0536  49.0536  49.1756
    49.1756  49.1756  49.1756  49.3059  49.3059  49.3666  49.3677  49.3677
    49.8823  49.8823  49.8823  49.8823  49.8982  49.8982  49.9744  49.9744
    50.0908  50.0908  50.3395  50.3395  50.3396  50.3396  50.7934  50.7934
    50.7934  50.7934  50.9675  50.9675  50.9675  50.9675  50.9675  50.9675
    50.9675  50.9675  51.1395  51.1395  51.1396  51.1396  51.1579  51.1579
    51.1579  51.1579  51.1579  51.1579  51.1579  51.1579  51.2355  51.2355
    51.2355  51.2355  51.4018  51.4019  51.4019  51.4019  51.5115  51.5115
    51.5116  51.5116  51.5175  51.5175  51.5575  51.5981  51.5981  52.2182
    52.2182  52.2182  52.2182  52.2182  52.2182  52.2182  52.2182  52.3601
    52.4245  52.4245  52.6268  52.6268  52.6268  52.6268  52.6586  52.6586
    52.6587  52.6587  53.1035  53.1035  53.1035  53.1035  53.1235  53.1235
    53.1235  53.1235  53.3984  53.3984  53.3985  53.3985  53.4948  53.4948
    53.6920  53.9848  53.9848  53.9848  53.9848  53.9975  53.9975  54.1213
    54.1213  54.1213  54.1213  54.1213  54.1213  54.1213  54.1213  54.1528
    54.1528  54.1999  54.4213  54.4213  54.9292  54.9292  55.0212  55.0212
    55.0212  55.0212  55.1958  55.1958  55.1958  55.1958  55.2415  55.2415
    55.3410  55.3410  55.5516  55.5516  55.5943  55.5943  55.5943  55.5943
    55.5944  55.5944  55.5944  55.5944  55.7297  56.4077  56.4077  56.4077
    56.4077  56.4434  56.4434  56.4434  56.4434  56.4434  56.4434  56.4434
    56.4434  56.5892  56.5892  56.5974  56.5974  56.8014  56.8014  56.8366
    56.8366  57.0162  57.1864  57.1864  57.1865  57.1865  57.2344  57.2344
    57.2344  57.2344  57.4567  57.4567  57.7028  57.7028  57.7028  57.7028
    57.7029  57.7029  57.7029  57.7029  57.8518  58.2773  58.2773  58.2773
    58.2773  58.5263  58.6924  58.6924  58.6924  58.6924  59.0253  59.0253
    59.0253  59.0253  59.0253  59.0253  59.0253  59.0253  59.3013  59.3013
    59.3013  59.3013  59.4649  59.4649  59.8428  59.8428  59.8428  59.8428
    59.8428  59.8428  59.8428  59.8428  60.4163  60.4384  60.4384  60.4384
    60.4385  60.5584  60.5584  60.5584  60.5584  60.9085  60.9085  60.9085
    60.9085  60.9085  60.9085  60.9085  60.9085  61.4565  61.4565  61.4565
    61.4565  61.4570  61.4570  61.4570  61.4570  61.4570  61.4570  61.4570
    61.4570  61.5946  61.5946  61.7781  61.7781  61.7933  61.7933  61.7933
    61.7933  62.0593  62.0593  62.4613  62.4613  62.9266  62.9266  62.9266
    62.9266  62.9266  62.9266  62.9266  62.9266  62.9341  62.9341  63.0577
    63.0577  63.0577  63.0577  63.1337  63.1337  63.1337  63.1337  63.4877
    63.4877  63.6211  64.0371  64.0371  64.0371  64.0371  64.3681  64.3681
    64.4408  64.4409  64.6416  64.6416  64.6416  64.6416  64.6416  64.6417
    64.6417  64.6417  64.7888  64.9493  64.9493  64.9493  64.9493  64.9498
    64.9499  65.0497  65.0497  65.1874  65.1874  65.1874  65.1874  65.4691
    65.4691  65.5139  65.5139  65.5139  65.5139  65.5139  65.5139  65.5139
    65.5139  65.5784  65.5784  65.5784  65.5784  65.7114  65.7114  65.7114
    65.7114  65.7359  65.7359  65.7359  65.7359  66.2960  66.2960  66.2960
    66.2960  66.7256  66.7256  66.7277  66.7277  66.7277  66.7277  67.0530
    67.0530  67.0785

     the Fermi energy is    10.6633 ev

     Writing output data file cro2.save
 
     init_run     :      4.71s CPU      5.55s WALL (       1 calls)
     electrons    :   2216.76s CPU   2224.31s WALL (       1 calls)

     Called by init_run:
     wfcinit      :      0.69s CPU      0.91s WALL (       1 calls)
     potinit      :      0.51s CPU      0.54s WALL (       1 calls)

     Called by electrons:
     c_bands      :   2216.71s CPU   2224.25s WALL (       1 calls)
     v_of_rho     :      0.16s CPU      0.17s WALL (       1 calls)
     newd         :      2.03s CPU      2.03s WALL (       1 calls)

     Called by c_bands:
     init_us_2    :      0.01s CPU      0.01s WALL (       4 calls)
     cegterg      :   2201.82s CPU   2209.18s WALL (       7 calls)

     Called by *egterg:
     h_psi        :    125.35s CPU    126.32s WALL (     123 calls)
     s_psi        :      8.39s CPU      8.43s WALL (     125 calls)
     g_psi        :      0.15s CPU      0.15s WALL (     114 calls)
     cdiaghg      :   1783.88s CPU   1789.44s WALL (     116 calls)

     Called by h_psi:
     add_vuspsi   :      8.33s CPU      8.43s WALL (     123 calls)

     General routines
     calbec       :     15.65s CPU     15.75s WALL (     248 calls)
     fft          :      0.13s CPU      0.14s WALL (      22 calls)
     ffts         :      0.01s CPU      0.01s WALL (       2 calls)
     fftw         :     95.85s CPU     96.59s WALL (   74630 calls)
     interpolate  :      0.02s CPU      0.02s WALL (       2 calls)
     davcio       :      0.00s CPU      0.21s WALL (      10 calls)
 
     Parallel routines
     fft_scatter  :     69.84s CPU     70.49s WALL (   74654 calls)
 
     PWSCF        : 37m11.67s CPU    37m22.17s WALL

 
   This run was terminated on:   1: 5:19  29Aug2018            

=------------------------------------------------------------------------------=
   JOB DONE.
=------------------------------------------------------------------------------=
