
     Program PWSCF v.4.3        starts on  4Sep2018 at 18:23:54 

     This program is part of the open-source Quantum ESPRESSO suite
     for quantum simulation of materials; please cite
         "P. Giannozzi et al., J. Phys.:Condens. Matter 21 395502 (2009);
          URL http://www.quantum-espresso.org", 
     in publications or presentations arising from this work. More details at
     http://www.quantum-espresso.org/wiki/index.php/Citing_Quantum-ESPRESSO

     Parallel version (MPI), running on    32 processors
     R & G space division:  proc/pool =   32

     Current dimensions of program PWSCF are:
     Max number of different atomic species (ntypx) = **
     Max number of k-points (npk) =  40000
     Max angular momentum in pseudopotentials (lmaxx) =  3
     Waiting for input...

     Subspace diagonalization in iterative solution of the eigenvalue problem:
     parallel, distributed-memory algorithm (size of sub-group:  4*  4 procs)

 
   Stick Mesh
   ----------
   nst =  9681,  nstw =  1209, nsts =  4835
               n.st   n.stw   n.sts    n.g    n.gw   n.gs
   min         302      37     151   20230     891    7145
   max         303      38     152   20235     896    7168
       9681    1209    4835  647433   28595  228945
 


     bravais-lattice index     =           14
     lattice parameter (a_0)   =      24.2289  a.u.
     unit-cell volume          =   13554.2397 (a.u.)^3
     number of atoms/cell      =            8
     number of atomic types    =            4
     number of electrons       =        25.00
     number of Kohn-Sham states=           16
     kinetic-energy cutoff     =      25.0000  Ry
     charge density cutoff     =     200.0000  Ry
     convergence threshold     =      1.0E-08
     mixing beta               =       0.3000
     number of iterations used =            8  local-TF  mixing
     Exchange-correlation      = SLA  PW   PBE  PBE (1434)
     EXX-fraction              =        0.00

     celldm(1)=  24.228935  celldm(2)=   1.035573  celldm(3)=   0.920219
     celldm(4)=   0.000000  celldm(5)=   0.000000  celldm(6)=   0.000000

     crystal axes: (cart. coord. in units of a_0)
               a(1) = (   1.000000   0.000000   0.000000 )  
               a(2) = (   0.000000   1.035573   0.000000 )  
               a(3) = (   0.000000   0.000000   0.920219 )  

     reciprocal axes: (cart. coord. in units 2 pi/a_0)
               b(1) = (  1.000000  0.000000  0.000000 )  
               b(2) = (  0.000000  0.965649  0.000000 )  
               b(3) = (  0.000000  0.000000  1.086697 )  


     PseudoPot. # 1 for C  read from file C.pbe-van-yufengl.UPF
     MD5 check sum: 53b91e9bc0fbd261922308fb0e321ce8
     Pseudo is Ultrasoft, Zval =  4.0
     Generated by new atomic code, or converted to UPF format
     Using radial grid of  745 points,  4 beta functions with: 
                l(1) =   0
                l(2) =   0
                l(3) =   1
                l(4) =   1
     Q(r) pseudized with  8 coefficients,  rinner =    0.800   0.800   0.800


     PseudoPot. # 2 for H  read from file H.pbe-van_bm.UPF
     MD5 check sum: b5ee9d7bfd3a09ee7748110bda690ff7
     Pseudo is Ultrasoft, Zval =  1.0
     Generated by new atomic code, or converted to UPF format
     Using radial grid of  615 points,  1 beta functions with: 
                l(1) =   0
     Q(r) pseudized with  8 coefficients,  rinner =    0.800

     PseudoPot. # 3 for O  read from file O.pbe-van_bm.UPF
     MD5 check sum: ca2828d9fb1f294809e918903b7648d1
     Pseudo is Ultrasoft, Zval =  6.0
     Generated by new atomic code, or converted to UPF format
     Using radial grid of  737 points,  4 beta functions with: 
                l(1) =   0
                l(2) =   0
                l(3) =   1
                l(4) =   1
     Q(r) pseudized with  8 coefficients,  rinner =    0.800   0.800   0.800


     PseudoPot. # 4 for ox read from file O.pbe-van-dgp-1s1.UPF
     MD5 check sum: 2083901d62884ac3a15d661bda1575b3
     Pseudo is Ultrasoft, Zval =  7.0
     Generated by new atomic code, or converted to UPF format
     Using radial grid of  737 points,  4 beta functions with: 
                l(1) =   0
                l(2) =   0
                l(3) =   1
                l(4) =   1
     Q(r) pseudized with  8 coefficients,  rinner =    0.800   0.800   0.800


     atomic species   valence    mass     pseudopotential
        C              4.00    12.00000     C ( 1.00)
        H              1.00     1.00790     H ( 1.00)
        O              6.00    15.99900     O ( 1.00)
        OX             7.00    15.99900     ox( 1.00)

     No symmetry found

   Cartesian axes

     site n.     atom                  positions (a_0 units)
         1           O   tau(  1) = (   0.0236636  -0.1005350  -0.0000156  )
         2           OX  tau(  2) = (   0.0764425   0.0692280  -0.0000156  )
         3           C   tau(  3) = (  -0.1071880   0.0274307  -0.0000156  )
         4           C   tau(  4) = (   0.0070741   0.0038685   0.0000390  )
         5           H   tau(  5) = (  -0.1434633  -0.0044145  -0.0702653  )
         6           H   tau(  6) = (  -0.1436115  -0.0047655   0.0700080  )
         7           H   tau(  7) = (  -0.1184426   0.1120080   0.0002028  )
         8           H   tau(  8) = (  -0.0395979  -0.1436193  -0.0000156  )

     number of k points=     1  Fermi-Dirac smearing, width (Ry)=  0.0019
                       cart. coord. in units 2pi/a_0
        k(    1) = (   0.0000000   0.0000000   0.0000000), wk =   2.0000000

     G cutoff = 2973.9858  ( 647433 G-vectors)     FFT grid: (120,120,108)
     G cutoff = 1486.9929  ( 228945 G-vectors)  smooth grid: ( 80, 80, 72)

     Largest allocated arrays     est. size (Mb)     dimensions
        Kohn-Sham Wavefunctions         0.22 Mb     (    896,  16)
        NL pseudopotentials             0.49 Mb     (    896,  36)
        Each V/rho on FFT grid          0.88 Mb     (  57600)
        Each G-vector array             0.15 Mb     (  20232)
        G-vector shells                 0.08 Mb     (   9963)
     Largest temporary arrays     est. size (Mb)     dimensions
        Auxiliary wavefunctions         0.88 Mb     (    896,  64)
        Each subspace H/S matrix        0.06 Mb     (     64,  64)
        Each <psi_i|beta_j> matrix      0.01 Mb     (     36,  16)
        Arrays for rho mixing           7.03 Mb     (  57600,   8)

     Initial potential from superposition of free atoms
     Check: negative starting charge=   -0.012067

     starting charge   23.99988, renormalised to   25.00000

     negative rho (up, down):  0.126E-01 0.000E+00
     Starting wfc are   22 atomic wfcs

     total cpu time spent up to now is      1.74 secs

     per-process dynamical memory:    66.7 Mb

     Self-consistent Calculation

     iteration #  1     ecut=    25.00 Ry     beta=0.30
     Davidson diagonalization with overlap
     ethr =  1.00E-02,  avg # of iterations =  7.0

     negative rho (up, down):  0.460E-02 0.000E+00

     total cpu time spent up to now is      3.04 secs

     total energy              =    -107.17501464 Ry
     Harris-Foulkes estimate   =    -107.33181313 Ry
     estimated scf accuracy    <       1.11503987 Ry

     iteration #  2     ecut=    25.00 Ry     beta=0.30
     Davidson diagonalization with overlap
     ethr =  4.46E-03,  avg # of iterations =  1.0

     negative rho (up, down):  0.467E-01 0.000E+00

     total cpu time spent up to now is      4.21 secs

     total energy              =    -106.84887288 Ry
     Harris-Foulkes estimate   =    -107.18596941 Ry
     estimated scf accuracy    <       0.72639793 Ry

     iteration #  3     ecut=    25.00 Ry     beta=0.30
     Davidson diagonalization with overlap
     ethr =  2.91E-03,  avg # of iterations =  2.0

     negative rho (up, down):  0.541E-01 0.000E+00

     total cpu time spent up to now is      5.44 secs

     total energy              =    -106.92441600 Ry
     Harris-Foulkes estimate   =    -106.96104153 Ry
     estimated scf accuracy    <       0.13131433 Ry

     iteration #  4     ecut=    25.00 Ry     beta=0.30
     Davidson diagonalization with overlap
     ethr =  5.25E-04,  avg # of iterations =  4.0

     negative rho (up, down):  0.749E-01 0.000E+00

     total cpu time spent up to now is      6.61 secs

     total energy              =    -106.89913183 Ry
     Harris-Foulkes estimate   =    -106.94321894 Ry
     estimated scf accuracy    <       0.09334660 Ry

     iteration #  5     ecut=    25.00 Ry     beta=0.30
     Davidson diagonalization with overlap
     ethr =  3.73E-04,  avg # of iterations =  2.0

     negative rho (up, down):  0.598E-01 0.000E+00

     total cpu time spent up to now is      7.52 secs

     total energy              =    -106.90380747 Ry
     Harris-Foulkes estimate   =    -106.90830273 Ry
     estimated scf accuracy    <       0.01901034 Ry

     iteration #  6     ecut=    25.00 Ry     beta=0.30
     Davidson diagonalization with overlap
     ethr =  7.60E-05,  avg # of iterations =  7.0

     negative rho (up, down):  0.429E-01 0.000E+00

     total cpu time spent up to now is      8.70 secs

     total energy              =    -106.90268107 Ry
     Harris-Foulkes estimate   =    -106.90517040 Ry
     estimated scf accuracy    <       0.00723167 Ry

     iteration #  7     ecut=    25.00 Ry     beta=0.30
     Davidson diagonalization with overlap
     ethr =  2.89E-05,  avg # of iterations =  6.0

     negative rho (up, down):  0.250E-01 0.000E+00

     total cpu time spent up to now is      9.82 secs

     total energy              =    -106.90261272 Ry
     Harris-Foulkes estimate   =    -106.90312745 Ry
     estimated scf accuracy    <       0.00273457 Ry

     iteration #  8     ecut=    25.00 Ry     beta=0.30
     Davidson diagonalization with overlap
     ethr =  1.09E-05,  avg # of iterations = 12.0

     negative rho (up, down):  0.197E-01 0.000E+00

     total cpu time spent up to now is     11.01 secs

     total energy              =    -106.90306150 Ry
     Harris-Foulkes estimate   =    -106.90283764 Ry
     estimated scf accuracy    <       0.00123462 Ry

     iteration #  9     ecut=    25.00 Ry     beta=0.30
     Davidson diagonalization with overlap
     ethr =  4.94E-06,  avg # of iterations =  6.0

     negative rho (up, down):  0.209E-01 0.000E+00

     total cpu time spent up to now is     12.23 secs

     total energy              =    -106.90321367 Ry
     Harris-Foulkes estimate   =    -106.90310495 Ry
     estimated scf accuracy    <       0.00076457 Ry

     iteration # 10     ecut=    25.00 Ry     beta=0.30
     Davidson diagonalization with overlap
     ethr =  3.06E-06,  avg # of iterations = 10.0

     negative rho (up, down):  0.265E-01 0.000E+00

     total cpu time spent up to now is     13.54 secs

     total energy              =    -106.90320749 Ry
     Harris-Foulkes estimate   =    -106.90328718 Ry
     estimated scf accuracy    <       0.00025849 Ry

     iteration # 11     ecut=    25.00 Ry     beta=0.30
     Davidson diagonalization with overlap
     ethr =  1.03E-06,  avg # of iterations =  4.0

     negative rho (up, down):  0.278E-01 0.000E+00

     total cpu time spent up to now is     14.76 secs

     total energy              =    -106.90322901 Ry
     Harris-Foulkes estimate   =    -106.90322404 Ry
     estimated scf accuracy    <       0.00012464 Ry

     iteration # 12     ecut=    25.00 Ry     beta=0.30
     Davidson diagonalization with overlap
     ethr =  4.99E-07,  avg # of iterations =  9.0

     negative rho (up, down):  0.302E-01 0.000E+00

     total cpu time spent up to now is     16.28 secs

     total energy              =    -106.90323052 Ry
     Harris-Foulkes estimate   =    -106.90323718 Ry
     estimated scf accuracy    <       0.00002963 Ry

     iteration # 13     ecut=    25.00 Ry     beta=0.30
     Davidson diagonalization with overlap
     ethr =  1.19E-07,  avg # of iterations =  2.0

     negative rho (up, down):  0.307E-01 0.000E+00

     total cpu time spent up to now is     17.37 secs

     total energy              =    -106.90323023 Ry
     Harris-Foulkes estimate   =    -106.90323176 Ry
     estimated scf accuracy    <       0.00001528 Ry

     iteration # 14     ecut=    25.00 Ry     beta=0.30
     Davidson diagonalization with overlap
     ethr =  6.11E-08,  avg # of iterations =  2.0

     negative rho (up, down):  0.317E-01 0.000E+00

     total cpu time spent up to now is     18.35 secs

     total energy              =    -106.90322846 Ry
     Harris-Foulkes estimate   =    -106.90323162 Ry
     estimated scf accuracy    <       0.00000519 Ry

     iteration # 15     ecut=    25.00 Ry     beta=0.30
     Davidson diagonalization with overlap
     ethr =  2.08E-08,  avg # of iterations =  2.0

     negative rho (up, down):  0.319E-01 0.000E+00

     total cpu time spent up to now is     19.66 secs

     total energy              =    -106.90322904 Ry
     Harris-Foulkes estimate   =    -106.90322914 Ry
     estimated scf accuracy    <       0.00000064 Ry

     iteration # 16     ecut=    25.00 Ry     beta=0.30
     Davidson diagonalization with overlap
     ethr =  2.56E-09,  avg # of iterations =  4.0

     negative rho (up, down):  0.321E-01 0.000E+00

     total cpu time spent up to now is     20.74 secs

     total energy              =    -106.90322900 Ry
     Harris-Foulkes estimate   =    -106.90322909 Ry
     estimated scf accuracy    <       0.00000027 Ry

     iteration # 17     ecut=    25.00 Ry     beta=0.30
     Davidson diagonalization with overlap
     ethr =  1.09E-09,  avg # of iterations =  2.0

     negative rho (up, down):  0.321E-01 0.000E+00

     total cpu time spent up to now is     21.76 secs

     total energy              =    -106.90322901 Ry
     Harris-Foulkes estimate   =    -106.90322903 Ry
     estimated scf accuracy    <       0.00000004 Ry

     iteration # 18     ecut=    25.00 Ry     beta=0.30
     Davidson diagonalization with overlap
     ethr =  1.79E-10,  avg # of iterations =  2.0

     negative rho (up, down):  0.322E-01 0.000E+00

     total cpu time spent up to now is     22.69 secs

     total energy              =    -106.90322901 Ry
     Harris-Foulkes estimate   =    -106.90322901 Ry
     estimated scf accuracy    <       0.00000002 Ry

     iteration # 19     ecut=    25.00 Ry     beta=0.30
     Davidson diagonalization with overlap
     ethr =  9.17E-11,  avg # of iterations =  2.0

     negative rho (up, down):  0.322E-01 0.000E+00

     total cpu time spent up to now is     23.01 secs

     End of self-consistent calculation

          k = 0.0000 0.0000 0.0000 ( 28595 PWs)   bands (ev):

   -30.2127 -26.4667 -18.2145 -15.8806 -14.2617 -12.7318 -12.4442 -10.9450
   -10.1041  -9.4967  -8.3983  -8.0307  -1.5640  -1.0202  -0.2490   0.0651

     the Fermi energy is    -1.5640 ev

!    total energy              =    -106.90322899 Ry
     Harris-Foulkes estimate   =    -106.90322901 Ry
     estimated scf accuracy    <          9.3E-09 Ry

     The total energy is the sum of the following terms:

     one-electron contribution =    -312.83960298 Ry
     hartree contribution      =     160.24107510 Ry
     xc contribution           =     -26.02254620 Ry
     ewald contribution        =      71.72047905 Ry
     smearing contrib. (-TS)   =      -0.00263396 Ry

     convergence has been achieved in  19 iterations
 forces --- starting time for forces:
     forces       :      0.00s CPU      0.00s WALL (       1 calls)

     Forces acting on atoms (Ry/au):

 forces --- nonlocal contribution:
     forces       :      0.07s CPU      0.07s WALL (       2 calls)
 forces --- local contribution:
     forces       :      0.08s CPU      0.08s WALL (       3 calls)
 forces --- NLCC contribution:
     forces       :      0.08s CPU      0.08s WALL (       4 calls)
 forces --- Hubbard contribution:
     forces       :      0.08s CPU      0.08s WALL (       5 calls)
 forces --- ionic contribution:
     forces       :      0.09s CPU      0.09s WALL (       6 calls)
 forces --- SCF contribution:
     forces       :      0.37s CPU      0.37s WALL (       7 calls)
     atom   1 type  3   force =     0.09372357   -0.05797282   -0.00018304
     atom   2 type  4   force =     0.22672735    0.15285381   -0.00038842
     atom   3 type  1   force =     0.05827294    0.04592663    0.00022930
     atom   4 type  1   force =    -0.33228516   -0.16259965    0.00075128
     atom   5 type  2   force =    -0.02163697   -0.00999346   -0.01526612
     atom   6 type  2   force =    -0.02140992   -0.00998715    0.01491223
     atom   7 type  2   force =    -0.00990287    0.00914360   -0.00003584
     atom   8 type  2   force =     0.00651106    0.03262904   -0.00001939

     Total force =     0.481812     Total SCF correction =     0.000145


     entering subroutine stress ...

          total   stress  (Ry/bohr**3)                   (kbar)     P=   -1.67
   0.00000130   0.00000895   0.00000000          0.19      1.32      0.00
   0.00000895  -0.00000578  -0.00000001          1.32     -0.85     -0.00
   0.00000000  -0.00000001  -0.00002961          0.00     -0.00     -4.36


     Writing output data file acetic.O2-XCH.save
 
     init_run     :      1.43s CPU      1.60s WALL (       1 calls)
     electrons    :     20.20s CPU     21.27s WALL (       1 calls)
     forces       :      0.37s CPU      0.37s WALL (       8 calls)
     stress       :      0.71s CPU      0.71s WALL (       1 calls)

     Called by init_run:
     wfcinit      :      0.05s CPU      0.05s WALL (       1 calls)
     potinit      :      0.43s CPU      0.46s WALL (       1 calls)

     Called by electrons:
     c_bands      :      1.90s CPU      2.02s WALL (      19 calls)
     sum_band     :      1.53s CPU      1.56s WALL (      19 calls)
     v_of_rho     :      1.27s CPU      1.33s WALL (      20 calls)
     newd         :      1.63s CPU      1.64s WALL (      20 calls)
     mix_rho      :     12.43s CPU     12.47s WALL (      19 calls)

     Called by c_bands:
     init_us_2    :      0.02s CPU      0.02s WALL (      39 calls)
     cegterg      :      1.87s CPU      1.99s WALL (      19 calls)

     Called by *egterg:
     h_psi        :      1.34s CPU      1.35s WALL (     106 calls)
     s_psi        :      0.01s CPU      0.01s WALL (     106 calls)
     g_psi        :      0.00s CPU      0.00s WALL (      86 calls)
     cdiaghg      :      0.41s CPU      0.53s WALL (     105 calls)

     Called by h_psi:
     add_vuspsi   :      0.01s CPU      0.01s WALL (     106 calls)

     General routines
     calbec       :      0.03s CPU      0.03s WALL (     127 calls)
     fft          :      1.99s CPU      2.19s WALL (     324 calls)
     ffts         :      8.98s CPU      9.01s WALL (    8453 calls)
     fftw         :      1.49s CPU      1.50s WALL (    1902 calls)
     interpolate  :      0.27s CPU      0.29s WALL (      39 calls)
     davcio       :      0.00s CPU      0.00s WALL (      20 calls)
 
     Parallel routines
     fft_scatter  :      5.98s CPU      6.19s WALL (   10679 calls)
 
     PWSCF        :    23.14s CPU        24.69s WALL

 
   This run was terminated on:  18:24:18   4Sep2018            

=------------------------------------------------------------------------------=
   JOB DONE.
=------------------------------------------------------------------------------=
