
     Program PWSCF v.4.3        starts on  4Sep2018 at 18:24:20 

     This program is part of the open-source Quantum ESPRESSO suite
     for quantum simulation of materials; please cite
         "P. Giannozzi et al., J. Phys.:Condens. Matter 21 395502 (2009);
          URL http://www.quantum-espresso.org", 
     in publications or presentations arising from this work. More details at
     http://www.quantum-espresso.org/wiki/index.php/Citing_Quantum-ESPRESSO

     Parallel version (MPI), running on    32 processors
     R & G space division:  proc/pool =   32

     Current dimensions of program PWSCF are:
     Max number of different atomic species (ntypx) = **
     Max number of k-points (npk) =  40000
     Max angular momentum in pseudopotentials (lmaxx) =  3
     Waiting for input...

     Atomic positions and unit cell read from directory:
     ./acetic.O2-XCH.save/
 

     Subspace diagonalization in iterative solution of the eigenvalue problem:
     parallel, distributed-memory algorithm (size of sub-group:  4*  4 procs)

 
   Stick Mesh
   ----------
   nst =  9681,  nstw =  1209, nsts =  4835
               n.st   n.stw   n.sts    n.g    n.gw   n.gs
   min         302      37     151   20230     891    7145
   max         303      38     152   20235     896    7168
       9681    1209    4835  647433   28595  228945
 


     bravais-lattice index     =           14
     lattice parameter (a_0)   =      24.2289  a.u.
     unit-cell volume          =   13554.2397 (a.u.)^3
     number of atoms/cell      =            8
     number of atomic types    =            4
     number of electrons       =        25.00
     number of Kohn-Sham states=          480
     kinetic-energy cutoff     =      25.0000  Ry
     charge density cutoff     =     200.0000  Ry
     Exchange-correlation      = SLA  PW   PBE  PBE (1434)
     EXX-fraction              =        0.00

     celldm(1)=  24.228935  celldm(2)=   1.035573  celldm(3)=   0.920219
     celldm(4)=   0.000000  celldm(5)=   0.000000  celldm(6)=   0.000000

     crystal axes: (cart. coord. in units of a_0)
               a(1) = (   1.000000   0.000000   0.000000 )  
               a(2) = (   0.000000   1.035573   0.000000 )  
               a(3) = (   0.000000   0.000000   0.920219 )  

     reciprocal axes: (cart. coord. in units 2 pi/a_0)
               b(1) = (  1.000000  0.000000  0.000000 )  
               b(2) = (  0.000000  0.965649  0.000000 )  
               b(3) = (  0.000000  0.000000  1.086697 )  


     PseudoPot. # 1 for C  read from file C.pbe-van-yufengl.UPF
     MD5 check sum: 53b91e9bc0fbd261922308fb0e321ce8
     Pseudo is Ultrasoft, Zval =  4.0
     Generated by new atomic code, or converted to UPF format
     Using radial grid of  745 points,  4 beta functions with: 
                l(1) =   0
                l(2) =   0
                l(3) =   1
                l(4) =   1
     Q(r) pseudized with  8 coefficients,  rinner =    0.800   0.800   0.800


     PseudoPot. # 2 for H  read from file H.pbe-van_bm.UPF
     MD5 check sum: b5ee9d7bfd3a09ee7748110bda690ff7
     Pseudo is Ultrasoft, Zval =  1.0
     Generated by new atomic code, or converted to UPF format
     Using radial grid of  615 points,  1 beta functions with: 
                l(1) =   0
     Q(r) pseudized with  8 coefficients,  rinner =    0.800

     PseudoPot. # 3 for O  read from file O.pbe-van_bm.UPF
     MD5 check sum: ca2828d9fb1f294809e918903b7648d1
     Pseudo is Ultrasoft, Zval =  6.0
     Generated by new atomic code, or converted to UPF format
     Using radial grid of  737 points,  4 beta functions with: 
                l(1) =   0
                l(2) =   0
                l(3) =   1
                l(4) =   1
     Q(r) pseudized with  8 coefficients,  rinner =    0.800   0.800   0.800


     PseudoPot. # 4 for ox read from file O.pbe-van-dgp-1s1.UPF
     MD5 check sum: 2083901d62884ac3a15d661bda1575b3
     Pseudo is Ultrasoft, Zval =  7.0
     Generated by new atomic code, or converted to UPF format
     Using radial grid of  737 points,  4 beta functions with: 
                l(1) =   0
                l(2) =   0
                l(3) =   1
                l(4) =   1
     Q(r) pseudized with  8 coefficients,  rinner =    0.800   0.800   0.800


     atomic species   valence    mass     pseudopotential
        C              4.00    12.00000     C ( 1.00)
        H              1.00     1.00790     H ( 1.00)
        O              6.00    15.99900     O ( 1.00)
        OX             7.00    15.99900     ox( 1.00)

     No symmetry found

   Cartesian axes

     site n.     atom                  positions (a_0 units)
         1           O   tau(  1) = (   0.0236636  -0.1005350  -0.0000156  )
         2           OX  tau(  2) = (   0.0764425   0.0692280  -0.0000156  )
         3           C   tau(  3) = (  -0.1071880   0.0274307  -0.0000156  )
         4           C   tau(  4) = (   0.0070741   0.0038685   0.0000390  )
         5           H   tau(  5) = (  -0.1434633  -0.0044145  -0.0702653  )
         6           H   tau(  6) = (  -0.1436115  -0.0047655   0.0700080  )
         7           H   tau(  7) = (  -0.1184426   0.1120080   0.0002028  )
         8           H   tau(  8) = (  -0.0395979  -0.1436193  -0.0000156  )

     number of k points=     1  Fermi-Dirac smearing, width (Ry)=  0.0019
                       cart. coord. in units 2pi/a_0
        k(    1) = (   0.0000000   0.0000000   0.0000000), wk =   2.0000000

     G cutoff = 2973.9858  ( 647433 G-vectors)     FFT grid: (120,120,108)
     G cutoff = 1486.9929  ( 228945 G-vectors)  smooth grid: ( 80, 80, 72)

     Largest allocated arrays     est. size (Mb)     dimensions
        Kohn-Sham Wavefunctions         6.56 Mb     (    896, 480)
        NL pseudopotentials             0.49 Mb     (    896,  36)
        Each V/rho on FFT grid          0.88 Mb     (  57600)
        Each G-vector array             0.15 Mb     (  20232)
        G-vector shells                 0.08 Mb     (   9963)
     Largest temporary arrays     est. size (Mb)     dimensions
        Auxiliary wavefunctions        26.25 Mb     (    896,1920)
        Each subspace H/S matrix       56.25 Mb     (   1920,1920)
        Each <psi_i|beta_j> matrix      0.26 Mb     (     36, 480)

     The potential is recalculated from file :
     ./acetic.O2-XCH.save/charge-density.dat


     negative rho (up, down):  0.322E-01 0.000E+00
     Starting wfc are   22 atomic +  458 random wfc

     total cpu time spent up to now is      1.40 secs

     per-process dynamical memory:    67.8 Mb

     Band Structure Calculation
     Davidson diagonalization with overlap

     ethr =  4.00E-11,  avg # of iterations = 20.0

     total cpu time spent up to now is     63.16 secs

     End of band structure calculation

          k = 0.0000 0.0000 0.0000     band energies (ev):

   -30.2130 -26.4668 -18.2140 -15.8808 -14.2619 -12.7320 -12.4441 -10.9449
   -10.1037  -9.4963  -8.3983  -8.0306  -1.5641  -1.0206  -0.2495   0.0646
     0.1972   0.2573   0.3230   0.3872   0.7831   1.0110   1.0512   1.0569
     1.0653   1.1735   1.1876   1.2943   1.2951   1.3104   1.3599   1.3743
     1.8586   2.0257   2.0763   2.1168   2.1191   2.1743   2.1895   2.2011
     2.2492   2.6280   2.7536   2.8515   2.9747   3.2344   3.3258   3.4039
     3.4683   3.5603   3.5923   3.6421   3.6702   3.7222   3.7385   3.7777
     3.8717   3.8873   3.9516   3.9837   4.0009   4.0366   4.1536   4.1659
     4.2805   4.4097   4.4619   4.5082   4.5175   4.5437   4.5583   4.5903
     4.6169   4.6562   4.6565   4.6840   4.7299   4.8005   4.8351   4.8410
     4.8763   4.8929   4.9088   4.9150   4.9200   4.9589   5.1238   5.2532
     5.2645   5.3222   5.3564   5.3974   5.4040   5.4739   5.4904   5.8163
     5.9520   6.1066   6.2163   6.3084   6.4397   6.5697   6.6395   6.7871
     6.9425   7.0808   7.1365   7.1652   7.1775   7.1989   7.2380   7.2594
     7.3347   7.3349   7.3639   7.3849   7.4036   7.4524   7.5112   7.6057
     7.6355   7.6689   7.7594   7.7623   7.7956   7.8240   7.8657   7.8690
     7.9123   7.9478   7.9675   7.9717   8.0118   8.0267   8.0543   8.0612
     8.0914   8.1122   8.1136   8.1257   8.1396   8.1761   8.1916   8.2581
     8.3018   8.3180   8.4696   8.5290   8.5563   8.5583   8.5887   8.6104
     8.7347   8.8062   8.8414   8.8580   8.9045   8.9269   8.9682   8.9710
     9.0023   9.0549   9.2306   9.2562   9.3436   9.3870   9.4078   9.4300
     9.4485   9.5047   9.5360   9.5518   9.6251   9.7139   9.7459   9.8589
     9.9838   9.9950  10.0121  10.0872  10.1591  10.2521  10.3117  10.4184
    10.4634  10.4646  10.5522  10.6185  10.6435  10.6884  10.6937  10.7066
    10.7304  10.7513  10.7535  10.7912  10.8019  10.8197  10.8591  10.8928
    10.9089  10.9156  10.9870  11.1023  11.1418  11.2989  11.3278  11.4018
    11.4602  11.4806  11.5329  11.5779  11.6263  11.6292  11.6719  11.7316
    11.7378  11.7698  11.8778  11.8803  11.8942  11.9283  11.9398  11.9698
    11.9913  11.9969  12.0115  12.0545  12.1030  12.1196  12.1306  12.1394
    12.2212  12.2250  12.2576  12.2814  12.3084  12.3093  12.3411  12.4598
    12.5100  12.5757  12.6082  12.6197  12.6573  12.6666  12.6874  12.7649
    12.7899  12.7906  12.8331  12.9706  12.9719  13.0057  13.1185  13.1825
    13.1962  13.2433  13.2707  13.3658  13.3960  13.4247  13.4847  13.5002
    13.5044  13.5228  13.5255  13.5365  13.5648  13.6464  13.6548  13.7232
    13.8230  13.8492  13.9407  13.9760  14.0578  14.1083  14.1205  14.1490
    14.2444  14.3238  14.3601  14.4170  14.4226  14.5531  14.6400  14.6544
    14.6866  14.7576  14.7784  14.8301  14.8814  14.8972  14.9109  14.9377
    14.9494  14.9532  14.9702  14.9911  14.9996  15.0380  15.0650  15.0822
    15.0882  15.0944  15.1035  15.1219  15.1333  15.1545  15.2255  15.2276
    15.3344  15.4172  15.4514  15.4573  15.5580  15.5763  15.6665  15.7050
    15.7185  15.8055  15.8386  15.8450  15.8602  15.8995  15.9031  15.9158
    15.9556  15.9855  16.0349  16.0682  16.0692  16.1632  16.1724  16.1833
    16.1928  16.1953  16.2304  16.2355  16.2976  16.3635  16.3785  16.4547
    16.5131  16.5349  16.6114  16.6940  16.7851  16.8224  16.8330  16.8568
    16.9087  16.9451  16.9690  17.0131  17.0850  17.1145  17.1409  17.2044
    17.2521  17.2742  17.2949  17.3341  17.3744  17.3827  17.3844  17.4183
    17.4295  17.4889  17.4893  17.5248  17.5415  17.5440  17.5562  17.5569
    17.5666  17.6054  17.6072  17.6130  17.6258  17.6344  17.6926  17.7378
    17.8033  17.8590  17.8816  17.9284  17.9339  17.9978  18.0040  18.0496
    18.0723  18.0733  18.0799  18.0848  18.1175  18.1254  18.1327  18.1441
    18.1455  18.1727  18.1766  18.2050  18.2175  18.2447  18.2648  18.2803
    18.2907  18.2913  18.3064  18.3197  18.3491  18.3898  18.4021  18.4244
    18.4645  18.5450  18.6610  18.6835  18.7981  18.8166  18.8807  18.9092
    18.9607  18.9854  18.9980  19.0585  19.0668  19.0851  19.1193  19.1463
    19.1768  19.3390  19.3967  19.4166  19.5566  19.5642  19.5757  19.7478
    19.7525  19.8616  19.9055  19.9434  19.9695  19.9962  20.0314  20.0709
    20.1132  20.1929  20.2060  20.2857  20.3293  20.3398  20.3844  20.3941
    20.4592  20.4894  20.5027  20.5266  20.5864  20.5971  20.6166  20.6294
    20.6388  20.6499  20.6762  20.6969  20.7153  20.7293  20.7321  20.7457
    20.7463  20.8431  20.8498  20.8941  20.9077  20.9569  20.9720  20.9762

     the Fermi energy is    -1.5641 ev

     Writing output data file acetic.O2-XCH.save
 
     init_run     :      1.09s CPU      1.22s WALL (       1 calls)
     electrons    :     61.45s CPU     61.80s WALL (       1 calls)

     Called by init_run:
     wfcinit      :      0.00s CPU      0.00s WALL (       1 calls)
     potinit      :      0.17s CPU      0.19s WALL (       1 calls)

     Called by electrons:
     c_bands      :     61.44s CPU     61.76s WALL (       1 calls)
     v_of_rho     :      0.08s CPU      0.09s WALL (       1 calls)
     newd         :      0.08s CPU      0.08s WALL (       1 calls)

     Called by c_bands:
     init_us_2    :      0.00s CPU      0.00s WALL (       1 calls)
     cegterg      :     60.40s CPU     60.69s WALL (       1 calls)

     Called by *egterg:
     h_psi        :     10.10s CPU     10.15s WALL (      22 calls)
     s_psi        :      0.06s CPU      0.06s WALL (      22 calls)
     g_psi        :      0.04s CPU      0.04s WALL (      20 calls)
     cdiaghg      :     41.76s CPU     41.97s WALL (      21 calls)

     Called by h_psi:
     add_vuspsi   :      0.06s CPU      0.06s WALL (      22 calls)

     General routines
     calbec       :      0.08s CPU      0.08s WALL (      22 calls)
     fft          :      0.40s CPU      0.50s WALL (      12 calls)
     ffts         :      0.00s CPU      0.00s WALL (       1 calls)
     fftw         :      9.44s CPU      9.49s WALL (   13376 calls)
     interpolate  :      0.02s CPU      0.02s WALL (       1 calls)
     davcio       :      0.00s CPU      0.03s WALL (       3 calls)
 
     Parallel routines
     fft_scatter  :      3.61s CPU      3.73s WALL (   13389 calls)
 
     PWSCF        :  1m 4.28s CPU     1m 5.30s WALL

 
   This run was terminated on:  18:25:26   4Sep2018            

=------------------------------------------------------------------------------=
   JOB DONE.
=------------------------------------------------------------------------------=
