
     Program PWSCF v.4.3        starts on 29Aug2018 at 11:17:49 

     This program is part of the open-source Quantum ESPRESSO suite
     for quantum simulation of materials; please cite
         "P. Giannozzi et al., J. Phys.:Condens. Matter 21 395502 (2009);
          URL http://www.quantum-espresso.org", 
     in publications or presentations arising from this work. More details at
     http://www.quantum-espresso.org/wiki/index.php/Citing_Quantum-ESPRESSO

     Parallel version (MPI), running on    64 processors
     R & G space division:  proc/pool =   64

     Current dimensions of program PWSCF are:
     Max number of different atomic species (ntypx) = **
     Max number of k-points (npk) =  40000
     Max angular momentum in pseudopotentials (lmaxx) =  3
     Waiting for input...

     Subspace diagonalization in iterative solution of the eigenvalue problem:
     parallel, distributed-memory algorithm (size of sub-group:  5*  5 procs)

 
   Stick Mesh
   ----------
   nst =  4753,  nstw =   649, nsts =  2383
               n.st   n.stw   n.sts    n.g    n.gw   n.gs
   min          74      10      37    4548     230    1599
   max          75      11      38    4553     236    1623
       4753     649    2383  291115   14915  103091
 


     bravais-lattice index     =           14
     lattice parameter (a_0)   =      18.5628  a.u.
     unit-cell volume          =    6094.5942 (a.u.)^3
     number of atoms/cell      =           72
     number of atomic types    =            3
     number of electrons       =       385.00
     number of Kohn-Sham states=          230
     kinetic-energy cutoff     =      25.0000  Ry
     charge density cutoff     =     200.0000  Ry
     convergence threshold     =      1.0E-08
     mixing beta               =       0.3000
     number of iterations used =            8  local-TF  mixing
     Exchange-correlation      = SLA  PW   PBE  PBE (1434)
     EXX-fraction              =        0.00

     celldm(1)=  18.562780  celldm(2)=   1.000000  celldm(3)=   1.100234
     celldm(4)=   0.000000  celldm(5)=   0.000000  celldm(6)=  -0.500000

     crystal axes: (cart. coord. in units of a_0)
               a(1) = (   1.000000   0.000000   0.000000 )  
               a(2) = (  -0.500000   0.866025   0.000000 )  
               a(3) = (   0.000000   0.000000   1.100234 )  

     reciprocal axes: (cart. coord. in units 2 pi/a_0)
               b(1) = (  1.000000  0.577350  0.000000 )  
               b(2) = (  0.000000  1.154701  0.000000 )  
               b(3) = (  0.000000  0.000000  0.908897 )  


     PseudoPot. # 1 for O  read from file O.pbe-van_bm.UPF
     MD5 check sum: ca2828d9fb1f294809e918903b7648d1
     Pseudo is Ultrasoft, Zval =  6.0
     Generated by new atomic code, or converted to UPF format
     Using radial grid of  737 points,  4 beta functions with: 
                l(1) =   0
                l(2) =   0
                l(3) =   1
                l(4) =   1
     Q(r) pseudized with  8 coefficients,  rinner =    0.800   0.800   0.800


     PseudoPot. # 2 for Si read from file Si.pbe-n-van.UPF
     MD5 check sum: 8a97496598b7338af554a5de8957bfee
     Pseudo is Ultrasoft + core correction, Zval =  4.0
     Generated by new atomic code, or converted to UPF format
     Using radial grid of  899 points,  6 beta functions with: 
                l(1) =   0
                l(2) =   0
                l(3) =   1
                l(4) =   1
                l(5) =   2
                l(6) =   2
     Q(r) pseudized with  8 coefficients,  rinner =    0.900   0.900   0.900
                                                       0.900   0.900

     PseudoPot. # 3 for ox read from file O.pbe-van-dgp-1s1.UPF
     MD5 check sum: 2083901d62884ac3a15d661bda1575b3
     Pseudo is Ultrasoft, Zval =  7.0
     Generated by new atomic code, or converted to UPF format
     Using radial grid of  737 points,  4 beta functions with: 
                l(1) =   0
                l(2) =   0
                l(3) =   1
                l(4) =   1
     Q(r) pseudized with  8 coefficients,  rinner =    0.800   0.800   0.800


     atomic species   valence    mass     pseudopotential
        O              6.00    15.99900     O ( 1.00)
        Si             4.00    28.08600     Si( 1.00)
        OX             7.00    15.99900     ox( 1.00)

     No symmetry found

   Cartesian axes

     site n.     atom                  positions (a_0 units)
         1           Si  tau(  1) = (   0.2348500   0.0000000   0.0916862  )
         2           Si  tau(  2) = (   0.2348500   0.0000000   0.6418033  )
         3           Si  tau(  3) = (  -0.0151500   0.4330127   0.0916862  )
         4           Si  tau(  4) = (  -0.0151500   0.4330127   0.6418033  )
         5           Si  tau(  5) = (   0.7348500   0.0000000   0.0916862  )
         6           Si  tau(  6) = (   0.7348500   0.0000000   0.6418033  )
         7           Si  tau(  7) = (   0.4848500   0.4330127   0.0916862  )
         8           Si  tau(  8) = (   0.4848500   0.4330127   0.6418033  )
         9           Si  tau(  9) = (  -0.1174250   0.2033861   0.4584309  )
        10           Si  tau( 10) = (  -0.1174250   0.2033861   1.0085480  )
        11           Si  tau( 11) = (  -0.3674250   0.6363988   0.4584309  )
        12           Si  tau( 12) = (  -0.3674250   0.6363988   1.0085480  )
        13           Si  tau( 13) = (   0.3825750   0.2033861   0.4584309  )
        14           Si  tau( 14) = (   0.3825750   0.2033861   1.0085480  )
        15           Si  tau( 15) = (   0.1325750   0.6363988   0.4584309  )
        16           Si  tau( 16) = (   0.1325750   0.6363988   1.0085480  )
        17           Si  tau( 17) = (   0.1325750   0.2296266   0.2750585  )
        18           Si  tau( 18) = (   0.1325750   0.2296266   0.8251756  )
        19           Si  tau( 19) = (  -0.1174250   0.6626393   0.2750585  )
        20           Si  tau( 20) = (  -0.1174250   0.6626393   0.8251756  )
        21           Si  tau( 21) = (   0.6325750   0.2296266   0.2750585  )
        22           Si  tau( 22) = (   0.6325750   0.2296266   0.8251756  )
        23           Si  tau( 23) = (   0.3825750   0.6626393   0.2750585  )
        24           Si  tau( 24) = (   0.3825750   0.6626393   0.8251756  )
        25           OX  tau( 25) = (   0.1398500   0.1157010   0.1570584  )
        26           O   tau( 26) = (   0.1398500   0.1157010   0.7071755  )
        27           O   tau( 27) = (  -0.1101500   0.5487137   0.1570584  )
        28           O   tau( 28) = (  -0.1101500   0.5487137   0.7071755  )
        29           O   tau( 29) = (   0.6398500   0.1157010   0.1570584  )
        30           O   tau( 30) = (   0.6398500   0.1157010   0.7071755  )
        31           O   tau( 31) = (   0.3898500   0.5487137   0.1570584  )
        32           O   tau( 32) = (   0.3898500   0.5487137   0.7071755  )
        33           O   tau( 33) = (   0.3298750   0.0632632   0.5238031  )
        34           O   tau( 34) = (   0.3298750   0.0632632   1.0739202  )
        35           O   tau( 35) = (   0.0798750   0.4962759   0.5238031  )
        36           O   tau( 36) = (   0.0798750   0.4962759   1.0739202  )
        37           O   tau( 37) = (   0.8298750   0.0632632   0.5238031  )
        38           O   tau( 38) = (   0.8298750   0.0632632   1.0739202  )
        39           O   tau( 39) = (   0.5798750   0.4962759   0.5238031  )
        40           O   tau( 40) = (   0.5798750   0.4962759   1.0739202  )
        41           O   tau( 41) = (   0.2802750   0.2540485   0.3404308  )
        42           O   tau( 42) = (   0.2802750   0.2540485   0.8905478  )
        43           O   tau( 43) = (   0.0302750   0.6870612   0.3404308  )
        44           O   tau( 44) = (   0.0302750   0.6870612   0.8905478  )
        45           O   tau( 45) = (   0.7802750   0.2540485   0.3404308  )
        46           O   tau( 46) = (   0.7802750   0.2540485   0.8905478  )
        47           O   tau( 47) = (   0.5302750   0.6870612   0.3404308  )
        48           O   tau( 48) = (   0.5302750   0.6870612   0.8905478  )
        49           O   tau( 49) = (   0.0302750   0.1789642   0.3930587  )
        50           O   tau( 50) = (   0.0302750   0.1789642   0.9431757  )
        51           O   tau( 51) = (  -0.2197250   0.6119769   0.3930587  )
        52           O   tau( 52) = (  -0.2197250   0.6119769   0.9431757  )
        53           O   tau( 53) = (   0.5302750   0.1789642   0.3930587  )
        54           O   tau( 54) = (   0.5302750   0.1789642   0.9431757  )
        55           O   tau( 55) = (   0.2802750   0.6119769   0.3930587  )
        56           O   tau( 56) = (   0.2802750   0.6119769   0.9431757  )
        57           O   tau( 57) = (  -0.1101500   0.3173117   0.0263139  )
        58           O   tau( 58) = (  -0.1101500   0.3173117   0.5764310  )
        59           O   tau( 59) = (  -0.3601500   0.7503244   0.0263139  )
        60           O   tau( 60) = (  -0.3601500   0.7503244   0.5764310  )
        61           O   tau( 61) = (   0.3898500   0.3173117   0.0263139  )
        62           O   tau( 62) = (   0.3898500   0.3173117   0.5764310  )
        63           O   tau( 63) = (   0.1398500   0.7503244   0.0263139  )
        64           O   tau( 64) = (   0.1398500   0.7503244   0.5764310  )
        65           O   tau( 65) = (   0.0798750   0.3697495   0.2096863  )
        66           O   tau( 66) = (   0.0798750   0.3697495   0.7598034  )
        67           O   tau( 67) = (  -0.1701250   0.8027622   0.2096863  )
        68           O   tau( 68) = (  -0.1701250   0.8027622   0.7598034  )
        69           O   tau( 69) = (   0.5798750   0.3697495   0.2096863  )
        70           O   tau( 70) = (   0.5798750   0.3697495   0.7598034  )
        71           O   tau( 71) = (   0.3298750   0.8027622   0.2096863  )
        72           O   tau( 72) = (   0.3298750   0.8027622   0.7598034  )

     number of k points=     8  Fermi-Dirac smearing, width (Ry)=  0.0019
                       cart. coord. in units 2pi/a_0
        k(    1) = (   0.0000000   0.0000000   0.0000000), wk =   0.2500000
        k(    2) = (   0.0000000   0.0000000  -0.4544487), wk =   0.2500000
        k(    3) = (   0.0000000  -0.5773503   0.0000000), wk =   0.2500000
        k(    4) = (   0.0000000  -0.5773503  -0.4544487), wk =   0.2500000
        k(    5) = (  -0.5000000  -0.2886751   0.0000000), wk =   0.2500000
        k(    6) = (  -0.5000000  -0.2886751  -0.4544487), wk =   0.2500000
        k(    7) = (   0.5000000  -0.2886751   0.0000000), wk =   0.2500000
        k(    8) = (   0.5000000  -0.2886751   0.4544487), wk =   0.2500000

     G cutoff = 1745.6464  ( 291115 G-vectors)     FFT grid: ( 90, 90, 96)
     G cutoff =  872.8232  ( 103091 G-vectors)  smooth grid: ( 60, 60, 72)

     Largest allocated arrays     est. size (Mb)     dimensions
        Kohn-Sham Wavefunctions         0.70 Mb     (    199, 230)
        NL pseudopotentials             2.48 Mb     (    199, 816)
        Each V/rho on FFT grid          0.25 Mb     (  16200)
        Each G-vector array             0.03 Mb     (   4548)
        G-vector shells                 0.02 Mb     (   2311)
     Largest temporary arrays     est. size (Mb)     dimensions
        Auxiliary wavefunctions         2.79 Mb     (    199, 920)
        Each subspace H/S matrix       12.92 Mb     (    920, 920)
        Each <psi_i|beta_j> matrix      2.86 Mb     (    816, 230)
        Arrays for rho mixing           1.98 Mb     (  16200,   8)

     Initial potential from superposition of free atoms

     starting charge  383.98382, renormalised to  385.00000
     Starting wfc are  288 atomic wfcs

     total cpu time spent up to now is      8.28 secs

     per-process dynamical memory:    80.2 Mb

     Self-consistent Calculation

     iteration #  1     ecut=    25.00 Ry     beta=0.30
     Davidson diagonalization with overlap
     ethr =  1.00E-02,  avg # of iterations =  3.9

     total cpu time spent up to now is     32.32 secs

     total energy              =   -1792.21955956 Ry
     Harris-Foulkes estimate   =   -1795.53744386 Ry
     estimated scf accuracy    <      16.41414440 Ry

     iteration #  2     ecut=    25.00 Ry     beta=0.30
     Davidson diagonalization with overlap
     ethr =  4.26E-03,  avg # of iterations =  1.0

     total cpu time spent up to now is     45.20 secs

     total energy              =   -1789.42771113 Ry
     Harris-Foulkes estimate   =   -1792.64444160 Ry
     estimated scf accuracy    <       7.48719625 Ry

     iteration #  3     ecut=    25.00 Ry     beta=0.30
     Davidson diagonalization with overlap
     ethr =  1.94E-03,  avg # of iterations =  2.0

     total cpu time spent up to now is     61.41 secs

     total energy              =   -1790.75756453 Ry
     Harris-Foulkes estimate   =   -1790.85504397 Ry
     estimated scf accuracy    <       0.78259141 Ry

     iteration #  4     ecut=    25.00 Ry     beta=0.30
     Davidson diagonalization with overlap
     ethr =  2.03E-04,  avg # of iterations =  8.4

     total cpu time spent up to now is     83.05 secs

     total energy              =   -1790.64636729 Ry
     Harris-Foulkes estimate   =   -1790.81648244 Ry
     estimated scf accuracy    <       0.47621006 Ry

     iteration #  5     ecut=    25.00 Ry     beta=0.30
     Davidson diagonalization with overlap
     ethr =  1.24E-04,  avg # of iterations =  5.6

     total cpu time spent up to now is    101.98 secs

     total energy              =   -1790.71043980 Ry
     Harris-Foulkes estimate   =   -1790.71114786 Ry
     estimated scf accuracy    <       0.11322306 Ry

     iteration #  6     ecut=    25.00 Ry     beta=0.30
     Davidson diagonalization with overlap
     ethr =  2.94E-05,  avg # of iterations =  5.6

     total cpu time spent up to now is    118.88 secs

     total energy              =   -1790.69337203 Ry
     Harris-Foulkes estimate   =   -1790.71635208 Ry
     estimated scf accuracy    <       0.07055961 Ry

     iteration #  7     ecut=    25.00 Ry     beta=0.30
     Davidson diagonalization with overlap
     ethr =  1.83E-05,  avg # of iterations =  9.2

     total cpu time spent up to now is    142.89 secs

     total energy              =   -1790.69326204 Ry
     Harris-Foulkes estimate   =   -1790.69982200 Ry
     estimated scf accuracy    <       0.02035956 Ry

     iteration #  8     ecut=    25.00 Ry     beta=0.30
     Davidson diagonalization with overlap
     ethr =  5.29E-06,  avg # of iterations =  7.0

     total cpu time spent up to now is    170.75 secs

     total energy              =   -1790.69630896 Ry
     Harris-Foulkes estimate   =   -1790.69749043 Ry
     estimated scf accuracy    <       0.00972091 Ry

     iteration #  9     ecut=    25.00 Ry     beta=0.30
     Davidson diagonalization with overlap
     ethr =  2.52E-06,  avg # of iterations =  1.1

     total cpu time spent up to now is    183.39 secs

     total energy              =   -1790.69343960 Ry
     Harris-Foulkes estimate   =   -1790.69655172 Ry
     estimated scf accuracy    <       0.00619129 Ry

     iteration # 10     ecut=    25.00 Ry     beta=0.30
     Davidson diagonalization with overlap
     ethr =  1.61E-06,  avg # of iterations =  6.8

     total cpu time spent up to now is    212.06 secs

     total energy              =   -1790.69484310 Ry
     Harris-Foulkes estimate   =   -1790.69487528 Ry
     estimated scf accuracy    <       0.00121970 Ry

     iteration # 11     ecut=    25.00 Ry     beta=0.30
     Davidson diagonalization with overlap
     ethr =  3.17E-07,  avg # of iterations =  1.8

     total cpu time spent up to now is    225.00 secs

     total energy              =   -1790.69467772 Ry
     Harris-Foulkes estimate   =   -1790.69490924 Ry
     estimated scf accuracy    <       0.00067564 Ry

     iteration # 12     ecut=    25.00 Ry     beta=0.30
     Davidson diagonalization with overlap
     ethr =  1.75E-07,  avg # of iterations =  2.1

     total cpu time spent up to now is    240.91 secs

     total energy              =   -1790.69479019 Ry
     Harris-Foulkes estimate   =   -1790.69480309 Ry
     estimated scf accuracy    <       0.00012305 Ry

     iteration # 13     ecut=    25.00 Ry     beta=0.30
     Davidson diagonalization with overlap
     ethr =  3.20E-08,  avg # of iterations =  3.0

     total cpu time spent up to now is    258.72 secs

     total energy              =   -1790.69479370 Ry
     Harris-Foulkes estimate   =   -1790.69481441 Ry
     estimated scf accuracy    <       0.00007998 Ry

     iteration # 14     ecut=    25.00 Ry     beta=0.30
     Davidson diagonalization with overlap
     ethr =  2.08E-08,  avg # of iterations =  2.0

     total cpu time spent up to now is    272.12 secs

     total energy              =   -1790.69480188 Ry
     Harris-Foulkes estimate   =   -1790.69480126 Ry
     estimated scf accuracy    <       0.00002167 Ry

     iteration # 15     ecut=    25.00 Ry     beta=0.30
     Davidson diagonalization with overlap
     ethr =  5.63E-09,  avg # of iterations =  1.0

     total cpu time spent up to now is    284.44 secs

     total energy              =   -1790.69479800 Ry
     Harris-Foulkes estimate   =   -1790.69480267 Ry
     estimated scf accuracy    <       0.00001395 Ry

     iteration # 16     ecut=    25.00 Ry     beta=0.30
     Davidson diagonalization with overlap
     ethr =  3.62E-09,  avg # of iterations =  2.6

     total cpu time spent up to now is    298.78 secs

     total energy              =   -1790.69479997 Ry
     Harris-Foulkes estimate   =   -1790.69479939 Ry
     estimated scf accuracy    <       0.00000346 Ry

     iteration # 17     ecut=    25.00 Ry     beta=0.30
     Davidson diagonalization with overlap
     ethr =  8.98E-10,  avg # of iterations =  2.5

     total cpu time spent up to now is    312.39 secs

     total energy              =   -1790.69480058 Ry
     Harris-Foulkes estimate   =   -1790.69480016 Ry
     estimated scf accuracy    <       0.00000206 Ry

     iteration # 18     ecut=    25.00 Ry     beta=0.30
     Davidson diagonalization with overlap
     ethr =  5.35E-10,  avg # of iterations =  1.6

     total cpu time spent up to now is    325.27 secs

     total energy              =   -1790.69480061 Ry
     Harris-Foulkes estimate   =   -1790.69480065 Ry
     estimated scf accuracy    <       0.00000115 Ry

     iteration # 19     ecut=    25.00 Ry     beta=0.30
     Davidson diagonalization with overlap
     ethr =  2.99E-10,  avg # of iterations =  2.2

     total cpu time spent up to now is    338.76 secs

     total energy              =   -1790.69480071 Ry
     Harris-Foulkes estimate   =   -1790.69480072 Ry
     estimated scf accuracy    <       0.00000044 Ry

     iteration # 20     ecut=    25.00 Ry     beta=0.30
     Davidson diagonalization with overlap
     ethr =  1.13E-10,  avg # of iterations =  2.1

     total cpu time spent up to now is    351.96 secs

     total energy              =   -1790.69480068 Ry
     Harris-Foulkes estimate   =   -1790.69480074 Ry
     estimated scf accuracy    <       0.00000026 Ry

     iteration # 21     ecut=    25.00 Ry     beta=0.30
     Davidson diagonalization with overlap
     ethr =  6.66E-11,  avg # of iterations =  2.2

     total cpu time spent up to now is    366.32 secs

     total energy              =   -1790.69480072 Ry
     Harris-Foulkes estimate   =   -1790.69480071 Ry
     estimated scf accuracy    <       0.00000006 Ry

     iteration # 22     ecut=    25.00 Ry     beta=0.30
     Davidson diagonalization with overlap
     ethr =  1.54E-11,  avg # of iterations =  3.0

     total cpu time spent up to now is    380.68 secs

     total energy              =   -1790.69480073 Ry
     Harris-Foulkes estimate   =   -1790.69480072 Ry
     estimated scf accuracy    <       0.00000004 Ry

     iteration # 23     ecut=    25.00 Ry     beta=0.30
     Davidson diagonalization with overlap
     ethr =  9.69E-12,  avg # of iterations =  2.0

     total cpu time spent up to now is    394.03 secs

     total energy              =   -1790.69480073 Ry
     Harris-Foulkes estimate   =   -1790.69480073 Ry
     estimated scf accuracy    <       0.00000002 Ry

     iteration # 24     ecut=    25.00 Ry     beta=0.30
     Davidson diagonalization with overlap
     ethr =  5.19E-12,  avg # of iterations =  2.0

     total cpu time spent up to now is    407.36 secs

     total energy              =   -1790.69480073 Ry
     Harris-Foulkes estimate   =   -1790.69480073 Ry
     estimated scf accuracy    <       0.00000001 Ry

     iteration # 25     ecut=    25.00 Ry     beta=0.30
     Davidson diagonalization with overlap
     ethr =  2.74E-12,  avg # of iterations =  2.6

     total cpu time spent up to now is    422.82 secs

     End of self-consistent calculation

          k = 0.0000 0.0000 0.0000 ( 12915 PWs)   bands (ev):

   -22.2790 -16.9240 -16.6860 -16.4851 -16.4661 -16.4308 -16.4089 -16.3766
   -16.3655 -16.3114 -16.1113 -16.0225 -15.9779 -15.9253 -15.8785 -15.8636
   -15.6275 -15.5309 -15.4987 -15.4344 -15.4242 -15.4102 -15.3277 -15.2844
   -15.0565 -15.0414 -15.0201 -14.9947 -14.8434 -14.8335 -14.7958 -14.7817
   -14.7730 -14.7637 -14.7539 -14.7469 -14.7383 -14.7307 -14.7290 -14.7250
   -14.7218 -14.7181 -14.7122 -14.6915 -14.6806 -14.6757 -14.6661 -14.6378
    -9.7701  -6.6630  -6.3604  -6.0108  -5.8708  -5.7309  -5.6938  -5.6532
    -5.6174  -5.5951  -5.5640  -5.3892  -4.8741  -4.7561  -4.7063  -4.6505
    -4.6300  -4.4573  -3.8807  -3.8134  -3.7257  -3.6573  -3.5525  -3.3318
    -3.2927  -3.2486  -3.0031  -2.9677  -2.9255  -2.8790  -2.8326  -2.7926
    -2.7731  -2.7571  -2.7446  -2.7230  -2.6891  -2.6786  -2.6125  -2.6058
    -2.4999  -2.4853  -2.4297  -2.3289  -2.3033  -2.2810  -2.0903  -1.9844
    -1.9784  -1.9524  -0.8103  -0.6995  -0.6491  -0.6348  -0.6047  -0.5758
    -0.5356  -0.4837  -0.4543  -0.4055  -0.3339  -0.3137  -0.3053  -0.2474
    -0.2224  -0.1725  -0.1112  -0.0779  -0.0729  -0.0188   0.0094   0.0752
     0.1298   0.1495   0.2375   0.2866   0.3083   0.3259   0.4097   0.4298
     0.4617   0.4783   0.4977   0.5196   0.5333   0.5574   0.5712   0.6146
     0.6532   0.7251   0.7849   0.8129   0.8402   0.8947   0.9154   0.9360
     1.0012   1.0279   1.0393   1.0769   1.1093   1.1421   1.1658   1.1942
     1.2854   1.3237   1.3342   1.3751   1.4451   1.4818   1.4874   1.5241
     1.5326   1.5482   1.5686   1.6039   1.6264   1.6308   1.6487   1.7187
     1.7562   1.7700   1.7874   1.8112   1.8283   1.8430   1.9082   1.9916
     2.0004   2.0322   2.1095   2.2360   2.2955   2.3458   2.3675   2.3934
     2.3988   2.4183   2.4484   2.4691   2.5472   2.5954   2.5984   2.6139
     8.2914   9.7992  10.3295  10.6111  10.6365  10.7833  10.9730  11.1944
    11.2694  11.3666  11.4715  11.4938  11.5713  11.7077  11.7146  11.8313
    11.9132  11.9219  11.9535  11.9907  12.0247  12.1248  12.1405  12.2031
    12.2379  12.2855  12.3244  12.3438  12.3530  12.3732  12.3948  12.4004
    12.4159  12.4420  12.6974  12.7406  12.7739  12.8065

          k = 0.0000 0.0000-0.4544 ( 12872 PWs)   bands (ev):

   -22.2790 -16.8348 -16.8056 -16.6039 -16.4578 -16.4220 -16.3979 -16.3775
   -16.3239 -16.1217 -16.0176 -16.0070 -15.9856 -15.9778 -15.8849 -15.8672
   -15.8641 -15.5638 -15.4861 -15.4667 -15.4502 -15.3676 -15.3123 -15.1848
   -15.0354 -15.0274 -15.0149 -14.9085 -14.8748 -14.8358 -14.8274 -14.7834
   -14.7767 -14.7683 -14.7631 -14.7550 -14.7434 -14.7366 -14.7336 -14.7279
   -14.7230 -14.7203 -14.7167 -14.6910 -14.6796 -14.6757 -14.6652 -14.6379
    -9.7682  -6.4584  -6.3583  -6.2948  -6.0022  -5.8399  -5.6952  -5.6451
    -5.6254  -5.6203  -5.4918  -4.8816  -4.7647  -4.6966  -4.6602  -4.6485
    -4.6407  -4.6159  -4.3536  -3.7145  -3.6540  -3.6081  -3.5608  -3.5282
    -3.4034  -3.0884  -3.0052  -2.9524  -2.9390  -2.8787  -2.8376  -2.8194
    -2.8096  -2.7877  -2.7763  -2.7421  -2.6731  -2.5973  -2.4970  -2.4611
    -2.4532  -2.4247  -2.3456  -2.2447  -2.2298  -2.1857  -2.1595  -2.1335
    -2.1115  -2.1033  -0.7987  -0.6743  -0.6361  -0.6202  -0.5755  -0.5465
    -0.5013  -0.4809  -0.4754  -0.4536  -0.4304  -0.4178  -0.4121  -0.3318
    -0.1647  -0.0739  -0.0624  -0.0547  -0.0324   0.0365   0.0722   0.0950
     0.1402   0.1727   0.2125   0.2270   0.2852   0.3015   0.3043   0.3445
     0.3539   0.4040   0.5794   0.6101   0.6229   0.6584   0.7159   0.7371
     0.7551   0.7910   0.8156   0.8445   0.8477   0.8735   0.9055   0.9440
     0.9787   0.9995   1.0319   1.0817   1.1090   1.1426   1.1542   1.1645
     1.1753   1.1919   1.2848   1.3016   1.3767   1.4093   1.4281   1.4560
     1.4675   1.5349   1.5777   1.5903   1.6308   1.6587   1.6841   1.6981
     1.7152   1.8003   1.8559   1.8923   1.9104   1.9304   1.9902   2.0082
     2.0846   2.1219   2.1581   2.2083   2.2255   2.2311   2.2675   2.3964
     2.4321   2.4525   2.4803   2.5330   2.5456   2.5610   2.5705   2.5805
     8.6511   9.1636  10.1933  10.7635  10.8690  10.9794  11.0767  11.1855
    11.2019  11.3102  11.3854  11.5004  11.5320  11.6133  11.6770  11.7304
    11.7477  11.7725  11.8559  11.9326  11.9747  12.0237  12.0678  12.0934
    12.1157  12.1548  12.3356  12.3786  12.4899  12.5731  12.5955  12.6485
    12.6865  12.7126  12.7686  12.8537  12.9233  12.9878

          k = 0.0000-0.5774 0.0000 ( 12872 PWs)   bands (ev):

   -22.2790 -16.8174 -16.7532 -16.5916 -16.4728 -16.4398 -16.3937 -16.3599
   -16.3133 -16.2702 -16.2469 -16.0461 -16.0013 -15.9722 -15.8966 -15.6905
   -15.6280 -15.5158 -15.4765 -15.4396 -15.4106 -15.3672 -15.3456 -15.1511
   -15.1037 -15.0144 -15.0048 -14.9716 -14.9104 -14.8327 -14.8001 -14.7925
   -14.7788 -14.7704 -14.7678 -14.7555 -14.7456 -14.7397 -14.7313 -14.7252
   -14.7188 -14.7179 -14.7118 -14.6951 -14.6915 -14.6875 -14.6806 -14.6651
    -9.7619  -6.4557  -6.2221  -6.2084  -5.9747  -5.7946  -5.7621  -5.6887
    -5.6534  -5.6086  -5.4724  -5.2605  -5.1065  -4.6752  -4.6549  -4.5899
    -4.5686  -4.0870  -4.0248  -3.9096  -3.8780  -3.7277  -3.6634  -3.5546
    -3.4182  -3.0489  -2.9458  -2.9084  -2.8860  -2.8214  -2.8130  -2.7711
    -2.7590  -2.7328  -2.7030  -2.6799  -2.6612  -2.6581  -2.6243  -2.5912
    -2.5245  -2.5022  -2.3917  -2.2988  -2.2762  -2.2680  -2.2018  -2.1287
    -1.9974  -1.9662  -0.7570  -0.7229  -0.6163  -0.6002  -0.5281  -0.5215
    -0.4993  -0.4643  -0.4244  -0.3925  -0.3747  -0.3519  -0.3199  -0.2776
    -0.2018  -0.1885  -0.1243  -0.0990  -0.0894  -0.0258  -0.0171   0.0728
     0.1390   0.1496   0.2218   0.3272   0.3365   0.3783   0.4022   0.4419
     0.4468   0.4667   0.4779   0.5006   0.5142   0.5420   0.5876   0.6040
     0.6476   0.6849   0.8028   0.8469   0.8832   0.9000   0.9581   0.9694
     1.0101   1.0540   1.0890   1.0993   1.1267   1.1563   1.1796   1.2171
     1.2364   1.2766   1.3126   1.3418   1.4498   1.4558   1.4837   1.4987
     1.5041   1.5503   1.5618   1.5652   1.5863   1.6214   1.6550   1.6664
     1.7270   1.7411   1.7849   1.8569   1.9298   1.9657   2.0053   2.0529
     2.0842   2.1530   2.1778   2.2147   2.2376   2.2461   2.2944   2.3229
     2.3742   2.3844   2.4103   2.4791   2.5108   2.5214   2.6015   2.6156
     8.8982   9.3989  10.1352  10.4661  10.6064  10.8371  10.9065  10.9506
    11.2786  11.3152  11.4521  11.4749  11.5282  11.6475  11.7546  11.8334
    11.8859  11.9285  11.9872  11.9931  12.0211  12.0231  12.1368  12.1770
    12.2284  12.2637  12.3063  12.3822  12.4140  12.4790  12.5501  12.5565
    12.6068  12.6661  12.6932  12.7177  12.7575  12.7970

          k = 0.0000-0.5774-0.4544 ( 12896 PWs)   bands (ev):

   -22.2790 -16.7941 -16.6733 -16.6521 -16.5925 -16.4996 -16.4189 -16.3752
   -16.3333 -16.1232 -16.0493 -15.9818 -15.9704 -15.9414 -15.8969 -15.8934
   -15.8441 -15.5274 -15.4427 -15.4351 -15.3692 -15.3421 -15.2485 -15.1725
   -15.0894 -15.0248 -15.0072 -14.9667 -14.9401 -14.8277 -14.7948 -14.7936
   -14.7805 -14.7764 -14.7614 -14.7559 -14.7481 -14.7443 -14.7359 -14.7233
   -14.7212 -14.7204 -14.7074 -14.6955 -14.6907 -14.6841 -14.6805 -14.6659
    -9.7623  -6.4383  -6.1263  -6.0861  -6.0237  -5.9907  -5.9265  -5.7705
    -5.6589  -5.6401  -5.4941  -4.8426  -4.6971  -4.6623  -4.6443  -4.6078
    -4.5971  -4.5645  -4.3717  -3.8207  -3.7135  -3.7067  -3.6488  -3.3827
    -3.3512  -3.3278  -3.1882  -2.9542  -2.9249  -2.8271  -2.7836  -2.7749
    -2.7481  -2.7449  -2.6767  -2.6283  -2.5630  -2.5112  -2.4946  -2.4609
    -2.4487  -2.4142  -2.3837  -2.3301  -2.2846  -2.2635  -2.2090  -2.1769
    -2.1437  -2.1241  -0.7814  -0.6826  -0.6790  -0.5995  -0.5941  -0.5616
    -0.5548  -0.4975  -0.4271  -0.3978  -0.2968  -0.2649  -0.2279  -0.1725
    -0.1365  -0.1231  -0.0769  -0.0631  -0.0435  -0.0348  -0.0074   0.0029
     0.0086   0.1079   0.1743   0.2136   0.2941   0.3210   0.3594   0.3793
     0.4125   0.4493   0.5214   0.5374   0.5900   0.6063   0.6386   0.6479
     0.6750   0.7039   0.7863   0.8333   0.8381   0.8981   0.9143   0.9458
     1.0425   1.0799   1.1163   1.1518   1.1643   1.1845   1.2093   1.2347
     1.2616   1.2742   1.2986   1.3287   1.3441   1.3771   1.3861   1.4125
     1.4564   1.4878   1.5818   1.6358   1.6448   1.6605   1.7009   1.7532
     1.7658   1.8005   1.8127   1.8501   1.8656   1.9216   1.9308   1.9690
     2.0183   2.1475   2.1667   2.1989   2.2316   2.2524   2.2811   2.3447
     2.3951   2.4001   2.4819   2.5164   2.5236   2.5283   2.5993   2.6162
     9.0387   9.7504   9.8470   9.9687  10.5144  10.6051  10.9807  11.0139
    11.2704  11.3257  11.4588  11.5220  11.5968  11.7549  11.7688  11.8285
    11.9159  11.9288  11.9781  12.0443  12.0716  12.1090  12.1671  12.1729
    12.2391  12.2630  12.2875  12.3153  12.4000  12.4767  12.5660  12.6164
    12.6519  12.7157  12.7663  12.7901  12.8020  12.8513

          k =-0.5000-0.2887 0.0000 ( 12872 PWs)   bands (ev):

   -22.2790 -16.7708 -16.7237 -16.6644 -16.4643 -16.4263 -16.3939 -16.3757
   -16.3596 -16.3091 -16.2619 -16.0720 -15.9284 -15.9058 -15.8870 -15.6872
   -15.6138 -15.5564 -15.4758 -15.4584 -15.4347 -15.3446 -15.2840 -15.1661
   -15.0842 -15.0588 -15.0151 -14.9815 -14.8950 -14.8301 -14.8203 -14.8018
   -14.7762 -14.7708 -14.7640 -14.7509 -14.7486 -14.7439 -14.7331 -14.7265
   -14.7221 -14.7210 -14.7126 -14.7067 -14.6964 -14.6824 -14.6569 -14.6499
    -9.7663  -6.3663  -6.2727  -6.1906  -6.0009  -5.8400  -5.7506  -5.6674
    -5.6427  -5.5829  -5.4469  -5.3168  -5.2296  -4.7404  -4.5905  -4.5740
    -4.3914  -4.1297  -3.9738  -3.9013  -3.8479  -3.7920  -3.7041  -3.5926
    -3.4975  -2.9587  -2.9335  -2.9157  -2.8347  -2.8156  -2.7971  -2.7926
    -2.7490  -2.7297  -2.7111  -2.6915  -2.6795  -2.6607  -2.6259  -2.5784
    -2.5515  -2.5203  -2.4121  -2.3151  -2.2942  -2.2740  -2.1437  -2.1150
    -2.0013  -1.9829  -0.7891  -0.6788  -0.6365  -0.6235  -0.5692  -0.5345
    -0.4498  -0.4221  -0.4149  -0.3917  -0.3826  -0.3722  -0.3455  -0.2371
    -0.2017  -0.1761  -0.1642  -0.0999  -0.0504  -0.0159   0.0159   0.0820
     0.1159   0.1587   0.2454   0.3124   0.3292   0.3422   0.3920   0.4085
     0.4187   0.4428   0.4719   0.5112   0.5180   0.5793   0.6178   0.6473
     0.6698   0.7424   0.7745   0.8206   0.8446   0.8903   0.9298   0.9988
     1.0416   1.0545   1.0615   1.0951   1.1156   1.1541   1.1609   1.1729
     1.2633   1.3005   1.3393   1.3732   1.4019   1.4481   1.4844   1.4975
     1.5375   1.5434   1.5499   1.5671   1.5848   1.5998   1.6427   1.6708
     1.6993   1.7951   1.8348   1.8696   1.9502   1.9762   2.0008   2.0410
     2.0817   2.1552   2.1580   2.2025   2.2196   2.2346   2.2691   2.3144
     2.3421   2.3992   2.4011   2.4995   2.5226   2.5492   2.6009   2.6049
     8.8423   9.4320  10.2193  10.4922  10.6751  10.7257  10.9225  11.0231
    11.1621  11.3111  11.4768  11.5063  11.5715  11.6511  11.6688  11.8408
    11.8531  11.9274  11.9707  12.0085  12.0222  12.0266  12.1330  12.1704
    12.2061  12.2479  12.2906  12.3527  12.4168  12.4947  12.5199  12.5877
    12.6282  12.6639  12.6801  12.7329  12.7811  12.8002

          k =-0.5000-0.2887-0.4544 ( 12896 PWs)   bands (ev):

   -22.2790 -16.7076 -16.7026 -16.6456 -16.5913 -16.5543 -16.4280 -16.4160
   -16.3902 -16.0865 -16.0054 -15.9822 -15.9418 -15.9274 -15.9151 -15.8976
   -15.8289 -15.5182 -15.4873 -15.4732 -15.2963 -15.2427 -15.2225 -15.2181
   -15.1954 -15.0251 -14.9935 -14.9674 -14.9422 -14.8291 -14.8122 -14.7990
   -14.7807 -14.7695 -14.7597 -14.7519 -14.7488 -14.7475 -14.7421 -14.7242
   -14.7215 -14.7200 -14.7147 -14.7068 -14.6945 -14.6816 -14.6570 -14.6499
    -9.7668  -6.3682  -6.1258  -6.0983  -6.0590  -5.9832  -5.8828  -5.7506
    -5.7162  -5.6596  -5.5498  -4.8222  -4.6910  -4.6784  -4.6484  -4.6263
    -4.5779  -4.5648  -4.2749  -3.8030  -3.7846  -3.7440  -3.5983  -3.4217
    -3.3397  -3.3309  -3.2449  -2.8839  -2.8673  -2.8209  -2.8115  -2.7861
    -2.7630  -2.7325  -2.6958  -2.6091  -2.5587  -2.5210  -2.5085  -2.5023
    -2.4301  -2.4151  -2.4032  -2.3089  -2.2604  -2.2349  -2.2259  -2.2140
    -2.1358  -2.1268  -0.7915  -0.6991  -0.6766  -0.6314  -0.6118  -0.5687
    -0.5276  -0.5010  -0.3795  -0.3390  -0.2971  -0.2884  -0.2474  -0.1942
    -0.1468  -0.0980  -0.0749  -0.0553  -0.0418  -0.0190   0.0059   0.0405
     0.0563   0.0854   0.1453   0.1615   0.2803   0.3320   0.3497   0.3724
     0.3777   0.4310   0.5427   0.5439   0.5687   0.6287   0.6328   0.6615
     0.6861   0.7188   0.7912   0.8385   0.8517   0.9083   0.9162   1.0236
     1.0342   1.0737   1.1012   1.1126   1.1445   1.1767   1.1974   1.2116
     1.2563   1.2883   1.2992   1.3124   1.3127   1.3489   1.4273   1.4365
     1.4706   1.5293   1.6162   1.6252   1.6353   1.6645   1.6785   1.7352
     1.7535   1.7984   1.8391   1.8638   1.8935   1.9157   1.9186   1.9351
     2.0375   2.1102   2.1740   2.1989   2.2150   2.2338   2.2886   2.3560
     2.4005   2.4162   2.4700   2.4995   2.5095   2.5480   2.6025   2.6257
     8.9783   9.8104   9.8622   9.9730  10.6257  10.6531  10.9031  10.9603
    11.2511  11.3483  11.4156  11.5578  11.6104  11.6970  11.7312  11.8517
    11.8868  11.9297  11.9972  12.0504  12.0782  12.1315  12.1695  12.2008
    12.2352  12.2656  12.2972  12.3419  12.3782  12.4623  12.5143  12.6055
    12.6380  12.7074  12.7293  12.7789  12.8225  12.8513

          k = 0.5000-0.2887 0.0000 ( 12872 PWs)   bands (ev):

   -22.2790 -16.8210 -16.7531 -16.5829 -16.4602 -16.4316 -16.4107 -16.3668
   -16.3202 -16.2680 -16.2472 -16.0305 -16.0100 -15.9811 -15.9037 -15.6825
   -15.6156 -15.5257 -15.4755 -15.4402 -15.4097 -15.3604 -15.3506 -15.1475
   -15.0943 -15.0262 -15.0199 -14.9520 -14.9043 -14.8349 -14.8206 -14.7995
   -14.7746 -14.7709 -14.7599 -14.7514 -14.7436 -14.7424 -14.7372 -14.7303
   -14.7255 -14.7169 -14.7024 -14.6957 -14.6921 -14.6818 -14.6743 -14.6671
    -9.7620  -6.4375  -6.2526  -6.2033  -5.9876  -5.7801  -5.7293  -5.7002
    -5.6718  -5.6033  -5.4844  -5.2303  -5.1459  -4.6529  -4.6413  -4.5844
    -4.5602  -4.1304  -4.0229  -3.9092  -3.8607  -3.7355  -3.6426  -3.5659
    -3.4419  -3.0117  -2.9821  -2.9213  -2.8602  -2.8269  -2.8134  -2.7657
    -2.7607  -2.7363  -2.7113  -2.6884  -2.6724  -2.6463  -2.6060  -2.5669
    -2.5365  -2.5080  -2.3988  -2.2926  -2.2835  -2.2667  -2.2031  -2.1225
    -2.0053  -1.9611  -0.7715  -0.7280  -0.5978  -0.5854  -0.5541  -0.5167
    -0.4884  -0.4587  -0.4321  -0.3819  -0.3806  -0.3425  -0.2991  -0.2657
    -0.2209  -0.1894  -0.1704  -0.1366  -0.0706  -0.0137   0.0013   0.0626
     0.1354   0.1684   0.2227   0.3090   0.3581   0.3846   0.3988   0.4216
     0.4514   0.4593   0.4765   0.4936   0.5265   0.5718   0.5976   0.6513
     0.6806   0.6899   0.7240   0.8024   0.8744   0.9096   0.9463   1.0099
     1.0398   1.0600   1.0749   1.0930   1.1071   1.1508   1.1629   1.2163
     1.2212   1.2854   1.2994   1.3442   1.4301   1.4623   1.5002   1.5115
     1.5289   1.5588   1.5675   1.5772   1.5974   1.6182   1.6399   1.6708
     1.7151   1.7417   1.7978   1.8441   1.8817   1.9593   2.0063   2.0529
     2.0673   2.1767   2.1882   2.2114   2.2479   2.2654   2.3002   2.3255
     2.3703   2.3879   2.4199   2.4419   2.5038   2.5345   2.6042   2.6116
     8.8925   9.3897  10.1215  10.5121  10.6102  10.8146  10.8970  11.0071
    11.2831  11.2987  11.3378  11.4671  11.6246  11.6620  11.7318  11.8611
    11.8973  11.9340  11.9530  11.9809  12.0080  12.0282  12.1462  12.1866
    12.2491  12.2778  12.3271  12.4066  12.4253  12.4959  12.5148  12.5809
    12.6329  12.6720  12.6786  12.7225  12.7293  12.7677

          k = 0.5000-0.2887 0.4544 ( 12896 PWs)   bands (ev):

   -22.2790 -16.7974 -16.6772 -16.6377 -16.6025 -16.4822 -16.4140 -16.3871
   -16.3455 -16.1214 -16.0419 -15.9818 -15.9684 -15.9383 -15.9066 -15.8962
   -15.8486 -15.5219 -15.4536 -15.4340 -15.3690 -15.3202 -15.2431 -15.1839
   -15.0776 -15.0329 -15.0182 -14.9690 -14.9262 -14.8288 -14.8170 -14.7925
   -14.7773 -14.7657 -14.7620 -14.7598 -14.7536 -14.7441 -14.7378 -14.7287
   -14.7246 -14.7133 -14.7015 -14.6943 -14.6928 -14.6814 -14.6741 -14.6673
    -9.7622  -6.4192  -6.1260  -6.1065  -6.0703  -5.9963  -5.9019  -5.7202
    -5.6705  -5.6374  -5.5065  -4.8422  -4.6877  -4.6625  -4.6388  -4.6172
    -4.6004  -4.5703  -4.3479  -3.8393  -3.7270  -3.7094  -3.6588  -3.3681
    -3.3528  -3.3173  -3.1715  -2.9751  -2.9419  -2.8141  -2.7863  -2.7585
    -2.7536  -2.7361  -2.7034  -2.6059  -2.5579  -2.5211  -2.4968  -2.4647
    -2.4334  -2.4163  -2.4040  -2.3417  -2.2726  -2.2441  -2.2234  -2.1792
    -2.1378  -2.1208  -0.7763  -0.7176  -0.6383  -0.5972  -0.5769  -0.5680
    -0.5601  -0.5145  -0.4285  -0.3972  -0.3099  -0.2658  -0.2240  -0.1634
    -0.1155  -0.0999  -0.0922  -0.0737  -0.0518  -0.0320  -0.0065   0.0116
     0.0416   0.0972   0.1243   0.2012   0.2559   0.3198   0.3466   0.3822
     0.4106   0.4940   0.5146   0.5468   0.5858   0.6209   0.6323   0.6700
     0.6808   0.7107   0.7590   0.7975   0.8643   0.9014   0.9951   1.0050
     1.0290   1.0864   1.0919   1.1243   1.1566   1.1592   1.1952   1.2226
     1.2383   1.2941   1.3159   1.3207   1.3441   1.3628   1.3789   1.4337
     1.4567   1.4840   1.5692   1.6391   1.6492   1.6586   1.6777   1.7450
     1.7535   1.8194   1.8293   1.8469   1.9021   1.9253   1.9361   1.9477
     2.0412   2.1260   2.1351   2.2209   2.2274   2.2441   2.2870   2.3254
     2.3967   2.4160   2.4844   2.5076   2.5186   2.5525   2.5994   2.6072
     9.0258   9.7479   9.8549   9.9671  10.5082  10.6561  10.9330  11.0088
    11.2863  11.3164  11.4491  11.5150  11.6376  11.7157  11.7983  11.8279
    11.8894  11.9482  12.0057  12.0284  12.0793  12.1237  12.1675  12.2186
    12.2353  12.2549  12.3038  12.3246  12.3916  12.5035  12.5657  12.6388
    12.6495  12.7215  12.7549  12.7766  12.8058  12.8508

     the Fermi energy is     8.8979 ev

!    total energy              =   -1790.69480073 Ry
     Harris-Foulkes estimate   =   -1790.69480073 Ry
     estimated scf accuracy    <          2.0E-09 Ry

     The total energy is the sum of the following terms:

     one-electron contribution =    -847.25742763 Ry
     hartree contribution      =     629.08297779 Ry
     xc contribution           =    -453.04735432 Ry
     ewald contribution        =   -1119.47206435 Ry
     smearing contrib. (-TS)   =      -0.00093221 Ry

     convergence has been achieved in  25 iterations
 forces --- starting time for forces:
     forces       :      0.00s CPU      0.00s WALL (       1 calls)

     Forces acting on atoms (Ry/au):

 forces --- nonlocal contribution:
     forces       :      1.02s CPU      1.03s WALL (       2 calls)
 forces --- local contribution:
     forces       :      1.03s CPU      1.03s WALL (       3 calls)
 forces --- NLCC contribution:
     forces       :      1.09s CPU      1.09s WALL (       4 calls)
 forces --- Hubbard contribution:
     forces       :      1.09s CPU      1.09s WALL (       5 calls)
 forces --- ionic contribution:
     forces       :      1.10s CPU      1.10s WALL (       6 calls)
 forces --- SCF contribution:
     forces       :      1.17s CPU      1.18s WALL (       7 calls)
     atom   1 type  2   force =     0.12581485   -0.15118176   -0.08910481
     atom   2 type  2   force =     0.00438141   -0.00174595    0.00283654
     atom   3 type  2   force =    -0.00793096    0.01649969   -0.01888912
     atom   4 type  2   force =     0.00528762    0.00233193    0.00220223
     atom   5 type  2   force =    -0.00205168   -0.00090325   -0.00057660
     atom   6 type  2   force =     0.00347403   -0.00124039    0.00194478
     atom   7 type  2   force =     0.00905209    0.00269289    0.00273193
     atom   8 type  2   force =     0.00626904    0.00196886    0.00151427
     atom   9 type  2   force =    -0.02737125    0.00787518    0.01350778
     atom  10 type  2   force =    -0.01151344    0.00659656   -0.01018034
     atom  11 type  2   force =    -0.00192048    0.00174407    0.00613145
     atom  12 type  2   force =    -0.00490605   -0.01377987   -0.02062948
     atom  13 type  2   force =     0.01624221   -0.00279346    0.02222382
     atom  14 type  2   force =     0.01068668    0.02540539   -0.01780664
     atom  15 type  2   force =    -0.00185058    0.00535756    0.00384255
     atom  16 type  2   force =    -0.00112012    0.00621410   -0.00350270
     atom  17 type  2   force =    -0.01883943    0.14412363    0.15364987
     atom  18 type  2   force =    -0.00141811   -0.00193982   -0.00789625
     atom  19 type  2   force =     0.00622104   -0.02652583    0.01558112
     atom  20 type  2   force =    -0.00060267   -0.00451681   -0.00364309
     atom  21 type  2   force =    -0.00333212   -0.00374107   -0.00100261
     atom  22 type  2   force =    -0.00213019   -0.00364354   -0.00341013
     atom  23 type  2   force =    -0.00647379   -0.01053282    0.00292320
     atom  24 type  2   force =    -0.00484198   -0.00498131   -0.00224672
     atom  25 type  3   force =    -0.08808657   -0.00314179   -0.04581315
     atom  26 type  1   force =    -0.01708288    0.00404198   -0.00464299
     atom  27 type  1   force =    -0.01706282    0.00386549   -0.00505512
     atom  28 type  1   force =    -0.01635322    0.00338455   -0.00482400
     atom  29 type  1   force =    -0.01603167    0.00271069   -0.00571145
     atom  30 type  1   force =    -0.01595362    0.00380486   -0.00469683
     atom  31 type  1   force =    -0.01680986    0.00386159   -0.00559169
     atom  32 type  1   force =    -0.01604263    0.00371552   -0.00468961
     atom  33 type  1   force =     0.00617144   -0.01383873   -0.00936333
     atom  34 type  1   force =    -0.01529512   -0.02272747    0.01604420
     atom  35 type  1   force =     0.00543739   -0.01673391   -0.00610769
     atom  36 type  1   force =     0.00398800   -0.02031587   -0.00145622
     atom  37 type  1   force =     0.00780849   -0.01431212   -0.00810502
     atom  38 type  1   force =     0.00931989   -0.01629658   -0.00418046
     atom  39 type  1   force =     0.00516114   -0.01533333   -0.00593728
     atom  40 type  1   force =     0.00591796   -0.01394937   -0.00473399
     atom  41 type  1   force =    -0.01113449    0.00674270   -0.03635726
     atom  42 type  1   force =     0.01269873    0.01107401   -0.00125913
     atom  43 type  1   force =     0.00827403    0.01409217   -0.00825147
     atom  44 type  1   force =     0.01140745    0.01236498   -0.00394194
     atom  45 type  1   force =     0.01527562    0.01183998   -0.00455669
     atom  46 type  1   force =     0.01313989    0.01184073   -0.00286287
     atom  47 type  1   force =     0.01158700    0.01639270   -0.00820307
     atom  48 type  1   force =     0.01390367    0.01345514   -0.00160092
     atom  49 type  1   force =     0.03634392   -0.02380810   -0.02099902
     atom  50 type  1   force =     0.01191314   -0.01517760    0.01168910
     atom  51 type  1   force =     0.01275860   -0.01092593    0.00207201
     atom  52 type  1   force =     0.00844623   -0.01140165    0.00925909
     atom  53 type  1   force =     0.00831784   -0.01292344    0.00484239
     atom  54 type  1   force =     0.00766342   -0.01406886    0.00868265
     atom  55 type  1   force =     0.01242705   -0.01230174    0.00377695
     atom  56 type  1   force =     0.01119530   -0.01229346    0.00568458
     atom  57 type  1   force =    -0.01368429   -0.00448123    0.00957188
     atom  58 type  1   force =    -0.01572216   -0.00604493    0.00198937
     atom  59 type  1   force =    -0.01805876    0.02885870    0.03032937
     atom  60 type  1   force =    -0.01698377   -0.00361847    0.00414501
     atom  61 type  1   force =    -0.02160441   -0.00864827    0.00505776
     atom  62 type  1   force =    -0.01891274   -0.00566716    0.00169943
     atom  63 type  1   force =    -0.01594962   -0.00256632    0.00604271
     atom  64 type  1   force =    -0.01605946   -0.00368681    0.00447852
     atom  65 type  1   force =     0.02089149   -0.01018201    0.00802583
     atom  66 type  1   force =     0.00542303    0.01503197    0.00603410
     atom  67 type  1   force =    -0.01932955    0.05115625   -0.00624521
     atom  68 type  1   force =     0.00514087    0.01627518    0.00552117
     atom  69 type  1   force =     0.00469037    0.01632009    0.00472175
     atom  70 type  1   force =     0.00513039    0.01546704    0.00525993
     atom  71 type  1   force =     0.00934632    0.01887086    0.00490893
     atom  72 type  1   force =     0.00525281    0.01599403    0.00514862

     Total force =     0.362908     Total SCF correction =     0.000091


     entering subroutine stress ...

          total   stress  (Ry/bohr**3)                   (kbar)     P=  -58.51
  -0.00041206  -0.00003538  -0.00001793        -60.62     -5.20     -2.64
  -0.00003538  -0.00036100   0.00005042         -5.20    -53.10      7.42
  -0.00001793   0.00005042  -0.00042022         -2.64      7.42    -61.82


     Writing output data file sio2.O25-XCH.save
 
     init_run     :      7.55s CPU      8.11s WALL (       1 calls)
     electrons    :    407.15s CPU    414.53s WALL (       1 calls)
     forces       :      1.17s CPU      1.18s WALL (       8 calls)
     stress       :      3.99s CPU      3.99s WALL (       1 calls)

     Called by init_run:
     wfcinit      :      5.89s CPU      5.97s WALL (       1 calls)
     potinit      :      0.13s CPU      0.14s WALL (       1 calls)

     Called by electrons:
     c_bands      :    340.51s CPU    346.96s WALL (      25 calls)
     sum_band     :     53.91s CPU     54.12s WALL (      25 calls)
     v_of_rho     :      0.52s CPU      0.53s WALL (      26 calls)
     newd         :     10.52s CPU     10.52s WALL (      26 calls)
     mix_rho      :      1.09s CPU      1.09s WALL (      25 calls)

     Called by c_bands:
     init_us_2    :      0.30s CPU      0.40s WALL (     424 calls)
     cegterg      :    338.14s CPU    344.33s WALL (     200 calls)

     Called by *egterg:
     h_psi        :    225.67s CPU    226.50s WALL (     876 calls)
     s_psi        :      6.66s CPU      6.67s WALL (     876 calls)
     g_psi        :      0.10s CPU      0.10s WALL (     668 calls)
     cdiaghg      :     91.34s CPU     96.52s WALL (     868 calls)

     Called by h_psi:
     add_vuspsi   :      6.58s CPU      6.65s WALL (     876 calls)

     General routines
     calbec       :     14.83s CPU     14.97s WALL (    1092 calls)
     fft          :      1.87s CPU      2.34s WALL (     437 calls)
     ffts         :      0.84s CPU      0.85s WALL (     793 calls)
     fftw         :    249.31s CPU    250.09s WALL (  261004 calls)
     interpolate  :      0.18s CPU      0.19s WALL (      51 calls)
     davcio       :      0.14s CPU      0.29s WALL (     632 calls)
 
     Parallel routines
     fft_scatter  :    206.76s CPU    207.88s WALL (  262234 calls)
 
     PWSCF        :  7m 4.43s CPU     7m13.70s WALL

 
   This run was terminated on:  11:25: 2  29Aug2018            

=------------------------------------------------------------------------------=
   JOB DONE.
=------------------------------------------------------------------------------=
