
     Program PWSCF v.4.3        starts on 29Aug2018 at 11:25: 6 

     This program is part of the open-source Quantum ESPRESSO suite
     for quantum simulation of materials; please cite
         "P. Giannozzi et al., J. Phys.:Condens. Matter 21 395502 (2009);
          URL http://www.quantum-espresso.org", 
     in publications or presentations arising from this work. More details at
     http://www.quantum-espresso.org/wiki/index.php/Citing_Quantum-ESPRESSO

     Parallel version (MPI), running on    64 processors
     R & G space division:  proc/pool =   64

     Current dimensions of program PWSCF are:
     Max number of different atomic species (ntypx) = **
     Max number of k-points (npk) =  40000
     Max angular momentum in pseudopotentials (lmaxx) =  3
     Waiting for input...

     Atomic positions and unit cell read from directory:
     ./sio2.O25-XCH.save/
 

     Subspace diagonalization in iterative solution of the eigenvalue problem:
     parallel, distributed-memory algorithm (size of sub-group:  5*  5 procs)

 
   Stick Mesh
   ----------
   nst =  4753,  nstw =   595, nsts =  2383
               n.st   n.stw   n.sts    n.g    n.gw   n.gs
   min          74       9      37    4548     201    1595
   max          75      10      38    4553     206    1623
       4753     595    2383  291115   12915  103091
 


     bravais-lattice index     =           14
     lattice parameter (a_0)   =      18.5628  a.u.
     unit-cell volume          =    6094.5942 (a.u.)^3
     number of atoms/cell      =           72
     number of atomic types    =            3
     number of electrons       =       385.00
     number of Kohn-Sham states=          690
     kinetic-energy cutoff     =      25.0000  Ry
     charge density cutoff     =     200.0000  Ry
     Exchange-correlation      = SLA  PW   PBE  PBE (1434)
     EXX-fraction              =        0.00

     celldm(1)=  18.562780  celldm(2)=   1.000000  celldm(3)=   1.100234
     celldm(4)=   0.000000  celldm(5)=   0.000000  celldm(6)=  -0.500000

     crystal axes: (cart. coord. in units of a_0)
               a(1) = (   1.000000   0.000000   0.000000 )  
               a(2) = (  -0.500000   0.866025   0.000000 )  
               a(3) = (   0.000000   0.000000   1.100234 )  

     reciprocal axes: (cart. coord. in units 2 pi/a_0)
               b(1) = (  1.000000  0.577350  0.000000 )  
               b(2) = (  0.000000  1.154701  0.000000 )  
               b(3) = (  0.000000  0.000000  0.908897 )  


     PseudoPot. # 1 for O  read from file O.pbe-van_bm.UPF
     MD5 check sum: ca2828d9fb1f294809e918903b7648d1
     Pseudo is Ultrasoft, Zval =  6.0
     Generated by new atomic code, or converted to UPF format
     Using radial grid of  737 points,  4 beta functions with: 
                l(1) =   0
                l(2) =   0
                l(3) =   1
                l(4) =   1
     Q(r) pseudized with  8 coefficients,  rinner =    0.800   0.800   0.800


     PseudoPot. # 2 for Si read from file Si.pbe-n-van.UPF
     MD5 check sum: 8a97496598b7338af554a5de8957bfee
     Pseudo is Ultrasoft + core correction, Zval =  4.0
     Generated by new atomic code, or converted to UPF format
     Using radial grid of  899 points,  6 beta functions with: 
                l(1) =   0
                l(2) =   0
                l(3) =   1
                l(4) =   1
                l(5) =   2
                l(6) =   2
     Q(r) pseudized with  8 coefficients,  rinner =    0.900   0.900   0.900
                                                       0.900   0.900

     PseudoPot. # 3 for ox read from file O.pbe-van-dgp-1s1.UPF
     MD5 check sum: 2083901d62884ac3a15d661bda1575b3
     Pseudo is Ultrasoft, Zval =  7.0
     Generated by new atomic code, or converted to UPF format
     Using radial grid of  737 points,  4 beta functions with: 
                l(1) =   0
                l(2) =   0
                l(3) =   1
                l(4) =   1
     Q(r) pseudized with  8 coefficients,  rinner =    0.800   0.800   0.800


     atomic species   valence    mass     pseudopotential
        O              6.00    15.99900     O ( 1.00)
        Si             4.00    28.08600     Si( 1.00)
        OX             7.00    15.99900     ox( 1.00)

     No symmetry found

   Cartesian axes

     site n.     atom                  positions (a_0 units)
         1           Si  tau(  1) = (   0.2348500   0.0000000   0.0916862  )
         2           Si  tau(  2) = (   0.2348500   0.0000000   0.6418033  )
         3           Si  tau(  3) = (  -0.0151500   0.4330127   0.0916862  )
         4           Si  tau(  4) = (  -0.0151500   0.4330127   0.6418033  )
         5           Si  tau(  5) = (   0.7348500   0.0000000   0.0916862  )
         6           Si  tau(  6) = (   0.7348500   0.0000000   0.6418033  )
         7           Si  tau(  7) = (   0.4848500   0.4330127   0.0916862  )
         8           Si  tau(  8) = (   0.4848500   0.4330127   0.6418033  )
         9           Si  tau(  9) = (  -0.1174250   0.2033861   0.4584309  )
        10           Si  tau( 10) = (  -0.1174250   0.2033861   1.0085480  )
        11           Si  tau( 11) = (  -0.3674250   0.6363988   0.4584309  )
        12           Si  tau( 12) = (  -0.3674250   0.6363988   1.0085480  )
        13           Si  tau( 13) = (   0.3825750   0.2033861   0.4584309  )
        14           Si  tau( 14) = (   0.3825750   0.2033861   1.0085480  )
        15           Si  tau( 15) = (   0.1325750   0.6363988   0.4584309  )
        16           Si  tau( 16) = (   0.1325750   0.6363988   1.0085480  )
        17           Si  tau( 17) = (   0.1325750   0.2296266   0.2750585  )
        18           Si  tau( 18) = (   0.1325750   0.2296266   0.8251756  )
        19           Si  tau( 19) = (  -0.1174250   0.6626393   0.2750585  )
        20           Si  tau( 20) = (  -0.1174250   0.6626393   0.8251756  )
        21           Si  tau( 21) = (   0.6325750   0.2296266   0.2750585  )
        22           Si  tau( 22) = (   0.6325750   0.2296266   0.8251756  )
        23           Si  tau( 23) = (   0.3825750   0.6626393   0.2750585  )
        24           Si  tau( 24) = (   0.3825750   0.6626393   0.8251756  )
        25           OX  tau( 25) = (   0.1398500   0.1157010   0.1570584  )
        26           O   tau( 26) = (   0.1398500   0.1157010   0.7071755  )
        27           O   tau( 27) = (  -0.1101500   0.5487137   0.1570584  )
        28           O   tau( 28) = (  -0.1101500   0.5487137   0.7071755  )
        29           O   tau( 29) = (   0.6398500   0.1157010   0.1570584  )
        30           O   tau( 30) = (   0.6398500   0.1157010   0.7071755  )
        31           O   tau( 31) = (   0.3898500   0.5487137   0.1570584  )
        32           O   tau( 32) = (   0.3898500   0.5487137   0.7071755  )
        33           O   tau( 33) = (   0.3298750   0.0632632   0.5238031  )
        34           O   tau( 34) = (   0.3298750   0.0632632   1.0739202  )
        35           O   tau( 35) = (   0.0798750   0.4962759   0.5238031  )
        36           O   tau( 36) = (   0.0798750   0.4962759   1.0739202  )
        37           O   tau( 37) = (   0.8298750   0.0632632   0.5238031  )
        38           O   tau( 38) = (   0.8298750   0.0632632   1.0739202  )
        39           O   tau( 39) = (   0.5798750   0.4962759   0.5238031  )
        40           O   tau( 40) = (   0.5798750   0.4962759   1.0739202  )
        41           O   tau( 41) = (   0.2802750   0.2540485   0.3404308  )
        42           O   tau( 42) = (   0.2802750   0.2540485   0.8905478  )
        43           O   tau( 43) = (   0.0302750   0.6870612   0.3404308  )
        44           O   tau( 44) = (   0.0302750   0.6870612   0.8905478  )
        45           O   tau( 45) = (   0.7802750   0.2540485   0.3404308  )
        46           O   tau( 46) = (   0.7802750   0.2540485   0.8905478  )
        47           O   tau( 47) = (   0.5302750   0.6870612   0.3404308  )
        48           O   tau( 48) = (   0.5302750   0.6870612   0.8905478  )
        49           O   tau( 49) = (   0.0302750   0.1789642   0.3930587  )
        50           O   tau( 50) = (   0.0302750   0.1789642   0.9431757  )
        51           O   tau( 51) = (  -0.2197250   0.6119769   0.3930587  )
        52           O   tau( 52) = (  -0.2197250   0.6119769   0.9431757  )
        53           O   tau( 53) = (   0.5302750   0.1789642   0.3930587  )
        54           O   tau( 54) = (   0.5302750   0.1789642   0.9431757  )
        55           O   tau( 55) = (   0.2802750   0.6119769   0.3930587  )
        56           O   tau( 56) = (   0.2802750   0.6119769   0.9431757  )
        57           O   tau( 57) = (  -0.1101500   0.3173117   0.0263139  )
        58           O   tau( 58) = (  -0.1101500   0.3173117   0.5764310  )
        59           O   tau( 59) = (  -0.3601500   0.7503244   0.0263139  )
        60           O   tau( 60) = (  -0.3601500   0.7503244   0.5764310  )
        61           O   tau( 61) = (   0.3898500   0.3173117   0.0263139  )
        62           O   tau( 62) = (   0.3898500   0.3173117   0.5764310  )
        63           O   tau( 63) = (   0.1398500   0.7503244   0.0263139  )
        64           O   tau( 64) = (   0.1398500   0.7503244   0.5764310  )
        65           O   tau( 65) = (   0.0798750   0.3697495   0.2096863  )
        66           O   tau( 66) = (   0.0798750   0.3697495   0.7598034  )
        67           O   tau( 67) = (  -0.1701250   0.8027622   0.2096863  )
        68           O   tau( 68) = (  -0.1701250   0.8027622   0.7598034  )
        69           O   tau( 69) = (   0.5798750   0.3697495   0.2096863  )
        70           O   tau( 70) = (   0.5798750   0.3697495   0.7598034  )
        71           O   tau( 71) = (   0.3298750   0.8027622   0.2096863  )
        72           O   tau( 72) = (   0.3298750   0.8027622   0.7598034  )

     number of k points=     1  Fermi-Dirac smearing, width (Ry)=  0.0019
                       cart. coord. in units 2pi/a_0
        k(    1) = (   0.0000000   0.0000000   0.0000000), wk =   2.0000000

     G cutoff = 1745.6464  ( 291115 G-vectors)     FFT grid: ( 90, 90, 96)
     G cutoff =  872.8232  ( 103091 G-vectors)  smooth grid: ( 60, 60, 72)

     Largest allocated arrays     est. size (Mb)     dimensions
        Kohn-Sham Wavefunctions         2.14 Mb     (    203, 690)
        NL pseudopotentials             2.53 Mb     (    203, 816)
        Each V/rho on FFT grid          0.25 Mb     (  16200)
        Each G-vector array             0.03 Mb     (   4548)
        G-vector shells                 0.02 Mb     (   2311)
     Largest temporary arrays     est. size (Mb)     dimensions
        Auxiliary wavefunctions         8.55 Mb     (    203,2760)
        Each subspace H/S matrix      116.24 Mb     (   2760,2760)
        Each <psi_i|beta_j> matrix      8.59 Mb     (    816, 690)

     The potential is recalculated from file :
     ./sio2.O25-XCH.save/charge-density.dat

     Starting wfc are  288 atomic +  402 random wfc

     total cpu time spent up to now is      2.32 secs

     per-process dynamical memory:    58.3 Mb

     Band Structure Calculation
     Davidson diagonalization with overlap

     ethr =  2.60E-12,  avg # of iterations = 57.0

     total cpu time spent up to now is    159.49 secs

     End of band structure calculation

          k = 0.0000 0.0000 0.0000     band energies (ev):

   -22.2788 -16.9240 -16.6860 -16.4851 -16.4661 -16.4307 -16.4089 -16.3766
   -16.3655 -16.3113 -16.1113 -16.0225 -15.9778 -15.9253 -15.8785 -15.8635
   -15.6275 -15.5308 -15.4987 -15.4344 -15.4242 -15.4102 -15.3277 -15.2844
   -15.0565 -15.0414 -15.0200 -14.9947 -14.8434 -14.8334 -14.7957 -14.7817
   -14.7730 -14.7636 -14.7539 -14.7469 -14.7383 -14.7306 -14.7289 -14.7250
   -14.7218 -14.7180 -14.7121 -14.6915 -14.6806 -14.6756 -14.6660 -14.6378
    -9.7699  -6.6630  -6.3603  -6.0107  -5.8707  -5.7309  -5.6937  -5.6531
    -5.6173  -5.5950  -5.5640  -5.3892  -4.8741  -4.7561  -4.7063  -4.6505
    -4.6300  -4.4572  -3.8807  -3.8134  -3.7257  -3.6573  -3.5525  -3.3318
    -3.2927  -3.2485  -3.0031  -2.9677  -2.9255  -2.8790  -2.8326  -2.7925
    -2.7731  -2.7571  -2.7445  -2.7230  -2.6891  -2.6786  -2.6125  -2.6058
    -2.4998  -2.4852  -2.4297  -2.3289  -2.3033  -2.2810  -2.0903  -1.9844
    -1.9784  -1.9524  -0.8103  -0.6994  -0.6491  -0.6347  -0.6047  -0.5758
    -0.5356  -0.4837  -0.4543  -0.4055  -0.3339  -0.3137  -0.3053  -0.2474
    -0.2224  -0.1725  -0.1112  -0.0779  -0.0728  -0.0187   0.0094   0.0753
     0.1298   0.1495   0.2375   0.2867   0.3083   0.3259   0.4097   0.4298
     0.4617   0.4783   0.4977   0.5197   0.5333   0.5574   0.5712   0.6146
     0.6532   0.7252   0.7849   0.8129   0.8402   0.8947   0.9154   0.9360
     1.0012   1.0279   1.0394   1.0770   1.1093   1.1421   1.1659   1.1942
     1.2854   1.3237   1.3342   1.3751   1.4451   1.4818   1.4874   1.5242
     1.5326   1.5483   1.5686   1.6040   1.6264   1.6309   1.6487   1.7187
     1.7562   1.7701   1.7875   1.8112   1.8283   1.8430   1.9082   1.9916
     2.0005   2.0322   2.1095   2.2361   2.2956   2.3458   2.3675   2.3934
     2.3988   2.4183   2.4485   2.4692   2.5473   2.5955   2.5984   2.6139
     8.2914   9.7992  10.3295  10.6111  10.6366  10.7833  10.9730  11.1944
    11.2695  11.3666  11.4715  11.4938  11.5713  11.7077  11.7147  11.8313
    11.9132  11.9219  11.9536  11.9907  12.0247  12.1248  12.1406  12.2031
    12.2379  12.2856  12.3244  12.3438  12.3530  12.3732  12.3948  12.4004
    12.4160  12.4420  12.6974  12.7406  12.7738  12.8064  12.9009  12.9624
    13.0174  13.0541  13.0749  13.1278  13.1844  13.2147  13.2508  13.2686
    13.2918  13.3384  13.4021  13.5952  13.6488  13.7359  13.7507  13.8184
    13.8535  13.9541  13.9770  14.0134  14.0415  14.0781  14.1080  14.1585
    14.1936  14.2752  14.2949  14.3657  14.4619  14.5033  14.5107  14.5355
    14.5523  14.5850  14.6272  14.6401  14.7802  15.0110  15.0889  15.1287
    15.1560  15.2460  15.2876  15.3083  15.3346  15.3579  15.3935  15.4211
    15.5103  15.5391  15.5895  15.5961  15.6322  15.8708  15.8904  15.9123
    15.9333  15.9606  16.1543  16.2530  16.2776  16.3446  16.3599  16.6403
    16.6690  16.7229  16.7709  16.8086  16.8474  16.9131  16.9643  17.0055
    17.1337  17.2503  17.3288  17.3958  17.4463  17.4640  17.5075  17.5817
    17.5936  17.6317  17.6933  17.7303  17.7620  17.7728  17.7929  17.8819
    17.9225  18.0285  18.0515  18.1142  18.1305  18.1677  18.2102  18.2406
    18.2559  18.2749  18.4892  18.5017  18.5221  18.6997  18.8036  18.8902
    18.9571  19.0281  19.1302  19.1944  19.2257  19.2330  19.2720  19.2827
    19.2947  19.5254  19.5409  19.5690  19.6393  19.6715  19.6832  19.7792
    20.0382  20.1551  20.2268  20.3498  20.4114  20.5183  20.6841  20.7390
    20.7546  20.8218  20.8890  20.9323  21.0714  21.1008  21.2674  21.2847
    21.2933  21.5393  21.6332  21.6474  21.6928  21.7096  21.7679  21.8214
    21.8561  21.8738  22.0480  22.0799  22.1777  22.1978  22.2298  22.2859
    22.3252  22.3374  22.3593  22.4202  22.4502  22.5298  22.5362  22.8081
    22.9420  22.9709  22.9838  23.0202  23.0600  23.1862  23.1961  23.2085
    23.3903  23.6630  23.6863  23.7865  23.8465  23.8742  24.0205  24.0818
    24.0873  24.1083  24.1131  24.1174  24.1464  24.1674  24.3928  24.4959
    24.5540  24.5966  24.6148  24.6264  24.6874  24.7313  24.7403  24.7594
    24.8212  24.8996  25.0002  25.0073  25.0185  25.5356  25.5464  25.6191
    25.7850  25.8051  25.8133  25.8845  25.9127  25.9267  26.1354  26.1849
    26.2107  26.2456  26.3541  26.4306  26.4464  26.4939  26.5317  26.5634
    26.5826  26.6197  26.6562  26.6664  26.6890  27.0400  27.0726  27.0899
    27.1068  27.1592  27.2052  27.2229  27.2574  27.2663  27.3269  27.3378
    27.3504  27.3969  27.4040  27.4226  27.4364  27.4434  27.5187  27.5368
    27.5798  27.6045  27.6288  27.9262  28.0016  28.0319  28.0720  28.1406
    28.1795  28.2366  28.3148  28.3271  28.3785  28.4023  28.4109  28.6547
    28.7137  28.7582  28.7811  28.7918  28.8153  29.0800  29.0907  29.3037
    29.3675  29.4046  29.4592  29.5139  29.5662  29.7817  29.8442  29.8894
    29.9140  29.9252  29.9512  29.9580  29.9865  29.9949  30.0198  30.0399
    30.3328  30.3872  30.4299  30.4724  30.5301  30.5433  30.6036  30.6252
    30.6405  30.6902  30.7297  30.7529  30.8335  30.8447  30.9475  30.9645
    30.9800  31.0536  31.0579  31.1175  31.1475  31.1697  31.2909  31.3007
    31.4045  31.4263  31.4778  31.5070  31.6472  31.7098  31.7681  31.8365
    31.8598  31.8882  32.2360  32.2657  32.2778  32.3478  32.3695  32.3814
    32.5069  32.5692  32.5946  32.6476  32.7005  32.7230  32.7491  32.7852
    32.8092  32.8446  32.8572  32.8753  32.8899  32.9331  32.9708  33.2811
    33.2912  33.3653  33.4359  33.4835  33.5677  33.5900  33.6077  33.6605
    33.6733  33.6802  33.6841  33.7470  33.7915  33.8633  33.8864  33.9419
    33.9530  33.9793  33.9944  34.0104  34.0183  34.0496  34.1150  34.1180
    34.1627  34.2186  34.2458  34.2531  34.3642  34.3894  34.7288  34.7674
    34.8089  34.8355  34.8367  34.8615  34.8651  34.8806  34.9086  34.9361
    34.9477  34.9786  35.0370  35.0700  35.1287  35.1715  35.1946  35.2874
    35.3197  35.3293  35.3969  35.5873  35.6403  35.6694  35.7325  35.7486
    35.8742  35.9009  35.9521  36.1540  36.1655  36.2072  36.2402  36.2656
    36.3089  36.3678  36.3810  36.3946  36.4206  36.4872  36.5039  36.5305
    36.5381  36.5609  36.6316  36.6451  36.6797  36.7902  36.8941  36.9019
    36.9304  36.9986  37.0144  37.0260  37.0697  37.1011  37.1508  37.2928
    37.3010  37.3372  37.3990  37.4986  37.5032  37.5328  37.6323  37.6660
    37.6760  37.7201  37.7336  37.9027  37.9405  37.9558  37.9928  38.0036
    38.0342  38.1201  38.1303  38.1562  38.1885  38.1969  38.3537  38.3764
    38.3935  38.4236  38.4865  38.5024  38.5267  38.5422  38.5644  38.6410
    38.6504  38.6728

     the Fermi energy is     8.2914 ev

     Writing output data file sio2.O25-XCH.save
 
     init_run     :      1.62s CPU      2.10s WALL (       1 calls)
     electrons    :    156.43s CPU    157.18s WALL (       1 calls)

     Called by init_run:
     wfcinit      :      0.00s CPU      0.00s WALL (       1 calls)
     potinit      :      0.08s CPU      0.08s WALL (       1 calls)

     Called by electrons:
     c_bands      :    156.42s CPU    157.17s WALL (       1 calls)
     v_of_rho     :      0.02s CPU      0.03s WALL (       1 calls)
     newd         :      0.50s CPU      0.50s WALL (       1 calls)

     Called by c_bands:
     init_us_2    :      0.00s CPU      0.00s WALL (       1 calls)
     cegterg      :    154.46s CPU    155.13s WALL (       3 calls)

     Called by *egterg:
     h_psi        :     27.72s CPU     27.83s WALL (      61 calls)
     s_psi        :      0.87s CPU      0.87s WALL (      61 calls)
     g_psi        :      0.02s CPU      0.02s WALL (      57 calls)
     cdiaghg      :    115.33s CPU    115.85s WALL (      58 calls)

     Called by h_psi:
     add_vuspsi   :      0.87s CPU      0.88s WALL (      61 calls)

     General routines
     calbec       :      1.29s CPU      1.31s WALL (      61 calls)
     fft          :      0.75s CPU      1.19s WALL (      13 calls)
     ffts         :      0.00s CPU      0.00s WALL (       1 calls)
     fftw         :     25.24s CPU     25.33s WALL (   27104 calls)
     interpolate  :      0.01s CPU      0.01s WALL (       1 calls)
     davcio       :      0.00s CPU      0.01s WALL (       3 calls)
 
     Parallel routines
     fft_scatter  :     21.27s CPU     21.79s WALL (   27118 calls)
 
     PWSCF        :  2m39.92s CPU     2m41.56s WALL

 
   This run was terminated on:  11:27:48  29Aug2018            

=------------------------------------------------------------------------------=
   JOB DONE.
=------------------------------------------------------------------------------=
