
     Program PWSCF v.4.3        starts on  4Sep2018 at 18:20: 9 

     This program is part of the open-source Quantum ESPRESSO suite
     for quantum simulation of materials; please cite
         "P. Giannozzi et al., J. Phys.:Condens. Matter 21 395502 (2009);
          URL http://www.quantum-espresso.org", 
     in publications or presentations arising from this work. More details at
     http://www.quantum-espresso.org/wiki/index.php/Citing_Quantum-ESPRESSO

     Parallel version (MPI), running on    32 processors
     R & G space division:  proc/pool =   32

     Current dimensions of program PWSCF are:
     Max number of different atomic species (ntypx) = **
     Max number of k-points (npk) =  40000
     Max angular momentum in pseudopotentials (lmaxx) =  3
     Waiting for input...

     Subspace diagonalization in iterative solution of the eigenvalue problem:
     parallel, distributed-memory algorithm (size of sub-group:  4*  4 procs)

 
   Stick Mesh
   ----------
   nst =  9681,  nstw =  1209, nsts =  4835
               n.st   n.stw   n.sts    n.g    n.gw   n.gs
   min         302      37     151   20230     891    7145
   max         303      38     152   20235     896    7168
       9681    1209    4835  647433   28595  228945
 


     bravais-lattice index     =           14
     lattice parameter (a_0)   =      24.2289  a.u.
     unit-cell volume          =   13554.2397 (a.u.)^3
     number of atoms/cell      =            8
     number of atomic types    =            3
     number of electrons       =        24.00
     number of Kohn-Sham states=           16
     kinetic-energy cutoff     =      25.0000  Ry
     charge density cutoff     =     200.0000  Ry
     convergence threshold     =      1.0E-08
     mixing beta               =       0.3000
     number of iterations used =            8  local-TF  mixing
     Exchange-correlation      =  SLA  PW   PBE  PBE (1434)
     EXX-fraction              =        0.00

     celldm(1)=  24.228935  celldm(2)=   1.035573  celldm(3)=   0.920219
     celldm(4)=   0.000000  celldm(5)=   0.000000  celldm(6)=   0.000000

     crystal axes: (cart. coord. in units of a_0)
               a(1) = (   1.000000   0.000000   0.000000 )  
               a(2) = (   0.000000   1.035573   0.000000 )  
               a(3) = (   0.000000   0.000000   0.920219 )  

     reciprocal axes: (cart. coord. in units 2 pi/a_0)
               b(1) = (  1.000000  0.000000  0.000000 )  
               b(2) = (  0.000000  0.965649  0.000000 )  
               b(3) = (  0.000000  0.000000  1.086697 )  


     PseudoPot. # 1 for C  read from file C.pbe-van-yufengl.UPF
     MD5 check sum: 53b91e9bc0fbd261922308fb0e321ce8
     Pseudo is Ultrasoft, Zval =  4.0
     Generated by new atomic code, or converted to UPF format
     Using radial grid of  745 points,  4 beta functions with: 
                l(1) =   0
                l(2) =   0
                l(3) =   1
                l(4) =   1
     Q(r) pseudized with  8 coefficients,  rinner =    0.800   0.800   0.800


     PseudoPot. # 2 for H  read from file H.pbe-van_bm.UPF
     MD5 check sum: b5ee9d7bfd3a09ee7748110bda690ff7
     Pseudo is Ultrasoft, Zval =  1.0
     Generated by new atomic code, or converted to UPF format
     Using radial grid of  615 points,  1 beta functions with: 
                l(1) =   0
     Q(r) pseudized with  8 coefficients,  rinner =    0.800

     PseudoPot. # 3 for O  read from file O.pbe-van_bm.UPF
     MD5 check sum: ca2828d9fb1f294809e918903b7648d1
     Pseudo is Ultrasoft, Zval =  6.0
     Generated by new atomic code, or converted to UPF format
     Using radial grid of  737 points,  4 beta functions with: 
                l(1) =   0
                l(2) =   0
                l(3) =   1
                l(4) =   1
     Q(r) pseudized with  8 coefficients,  rinner =    0.800   0.800   0.800


     atomic species   valence    mass     pseudopotential
        C              4.00    12.00000     C ( 1.00)
        H              1.00     1.00790     H ( 1.00)
        O              6.00    15.99900     O ( 1.00)

     No symmetry found

   Cartesian axes

     site n.     atom                  positions (a_0 units)
         1           O   tau(  1) = (   0.0236636  -0.1005350  -0.0000156  )
         2           O   tau(  2) = (   0.0764425   0.0692280  -0.0000156  )
         3           C   tau(  3) = (  -0.1071880   0.0274307  -0.0000156  )
         4           C   tau(  4) = (   0.0070741   0.0038685   0.0000390  )
         5           H   tau(  5) = (  -0.1434633  -0.0044145  -0.0702653  )
         6           H   tau(  6) = (  -0.1436115  -0.0047655   0.0700080  )
         7           H   tau(  7) = (  -0.1184426   0.1120080   0.0002028  )
         8           H   tau(  8) = (  -0.0395979  -0.1436193  -0.0000156  )

     number of k points=     1  Fermi-Dirac smearing, width (Ry)=  0.0019
                       cart. coord. in units 2pi/a_0
        k(    1) = (   0.0000000   0.0000000   0.0000000), wk =   2.0000000

     G cutoff = 2973.9858  ( 647433 G-vectors)     FFT grid: (120,120,108)
     G cutoff = 1486.9929  ( 228945 G-vectors)  smooth grid: ( 80, 80, 72)

     Largest allocated arrays     est. size (Mb)     dimensions
        Kohn-Sham Wavefunctions         0.22 Mb     (    896,  16)
        NL pseudopotentials             0.49 Mb     (    896,  36)
        Each V/rho on FFT grid          0.88 Mb     (  57600)
        Each G-vector array             0.15 Mb     (  20232)
        G-vector shells                 0.08 Mb     (   9963)
     Largest temporary arrays     est. size (Mb)     dimensions
        Auxiliary wavefunctions         0.88 Mb     (    896,  64)
        Each subspace H/S matrix        0.06 Mb     (     64,  64)
        Each <psi_i|beta_j> matrix      0.01 Mb     (     36,  16)
        Arrays for rho mixing           7.03 Mb     (  57600,   8)

     Initial potential from superposition of free atoms
     Check: negative starting charge=   -0.016264

     starting charge   23.99988, renormalised to   24.00000

     negative rho (up, down):  0.163E-01 0.000E+00
     Starting wfc are   22 atomic wfcs

     total cpu time spent up to now is      1.60 secs

     per-process dynamical memory:    64.6 Mb

     Self-consistent Calculation

     iteration #  1     ecut=    25.00 Ry     beta=0.30
     Davidson diagonalization with overlap
     ethr =  1.00E-02,  avg # of iterations =  7.0

     negative rho (up, down):  0.171E-03 0.000E+00

     total cpu time spent up to now is      2.85 secs

     total energy              =     -91.70460252 Ry
     Harris-Foulkes estimate   =     -91.86918162 Ry
     estimated scf accuracy    <       0.97981518 Ry

     iteration #  2     ecut=    25.00 Ry     beta=0.30
     Davidson diagonalization with overlap
     ethr =  4.08E-03,  avg # of iterations =  1.0

     negative rho (up, down):  0.200E-02 0.000E+00

     total cpu time spent up to now is      4.08 secs

     total energy              =     -91.51745917 Ry
     Harris-Foulkes estimate   =     -91.72268588 Ry
     estimated scf accuracy    <       0.51795265 Ry

     iteration #  3     ecut=    25.00 Ry     beta=0.30
     Davidson diagonalization with overlap
     ethr =  2.16E-03,  avg # of iterations =  2.0

     negative rho (up, down):  0.293E-02 0.000E+00

     total cpu time spent up to now is      5.09 secs

     total energy              =     -91.54760894 Ry
     Harris-Foulkes estimate   =     -91.57965593 Ry
     estimated scf accuracy    <       0.09501701 Ry

     iteration #  4     ecut=    25.00 Ry     beta=0.30
     Davidson diagonalization with overlap
     ethr =  3.96E-04,  avg # of iterations =  5.0

     negative rho (up, down):  0.416E-02 0.000E+00

     total cpu time spent up to now is      6.65 secs

     total energy              =     -91.54232747 Ry
     Harris-Foulkes estimate   =     -91.55322922 Ry
     estimated scf accuracy    <       0.03456376 Ry

     iteration #  5     ecut=    25.00 Ry     beta=0.30
     Davidson diagonalization with overlap
     ethr =  1.44E-04,  avg # of iterations =  1.0

     negative rho (up, down):  0.629E-02 0.000E+00

     total cpu time spent up to now is      7.62 secs

     total energy              =     -91.54033203 Ry
     Harris-Foulkes estimate   =     -91.54435769 Ry
     estimated scf accuracy    <       0.01830745 Ry

     iteration #  6     ecut=    25.00 Ry     beta=0.30
     Davidson diagonalization with overlap
     ethr =  7.63E-05,  avg # of iterations =  4.0

     negative rho (up, down):  0.153E-01 0.000E+00

     total cpu time spent up to now is      8.62 secs

     total energy              =     -91.53830481 Ry
     Harris-Foulkes estimate   =     -91.54113283 Ry
     estimated scf accuracy    <       0.00849840 Ry

     iteration #  7     ecut=    25.00 Ry     beta=0.30
     Davidson diagonalization with overlap
     ethr =  3.54E-05,  avg # of iterations =  4.0

     negative rho (up, down):  0.349E-01 0.000E+00

     total cpu time spent up to now is      9.70 secs

     total energy              =     -91.53852691 Ry
     Harris-Foulkes estimate   =     -91.53867489 Ry
     estimated scf accuracy    <       0.00468163 Ry

     iteration #  8     ecut=    25.00 Ry     beta=0.30
     Davidson diagonalization with overlap
     ethr =  1.95E-05,  avg # of iterations =  3.0

     negative rho (up, down):  0.435E-01 0.000E+00

     total cpu time spent up to now is     10.81 secs

     total energy              =     -91.53896031 Ry
     Harris-Foulkes estimate   =     -91.53893172 Ry
     estimated scf accuracy    <       0.00154330 Ry

     iteration #  9     ecut=    25.00 Ry     beta=0.30
     Davidson diagonalization with overlap
     ethr =  6.43E-06,  avg # of iterations =  3.0

     negative rho (up, down):  0.450E-01 0.000E+00

     total cpu time spent up to now is     11.82 secs

     total energy              =     -91.53912635 Ry
     Harris-Foulkes estimate   =     -91.53912589 Ry
     estimated scf accuracy    <       0.00074780 Ry

     iteration # 10     ecut=    25.00 Ry     beta=0.30
     Davidson diagonalization with overlap
     ethr =  3.12E-06,  avg # of iterations =  5.0

     negative rho (up, down):  0.449E-01 0.000E+00

     total cpu time spent up to now is     12.94 secs

     total energy              =     -91.53911632 Ry
     Harris-Foulkes estimate   =     -91.53916894 Ry
     estimated scf accuracy    <       0.00018682 Ry

     iteration # 11     ecut=    25.00 Ry     beta=0.30
     Davidson diagonalization with overlap
     ethr =  7.78E-07,  avg # of iterations =  4.0

     negative rho (up, down):  0.411E-01 0.000E+00

     total cpu time spent up to now is     13.89 secs

     total energy              =     -91.53909539 Ry
     Harris-Foulkes estimate   =     -91.53913671 Ry
     estimated scf accuracy    <       0.00007626 Ry

     iteration # 12     ecut=    25.00 Ry     beta=0.30
     Davidson diagonalization with overlap
     ethr =  3.18E-07,  avg # of iterations =  2.0

     negative rho (up, down):  0.422E-01 0.000E+00

     total cpu time spent up to now is     15.12 secs

     total energy              =     -91.53910467 Ry
     Harris-Foulkes estimate   =     -91.53910931 Ry
     estimated scf accuracy    <       0.00002369 Ry

     iteration # 13     ecut=    25.00 Ry     beta=0.30
     Davidson diagonalization with overlap
     ethr =  9.87E-08,  avg # of iterations =  1.0

     negative rho (up, down):  0.419E-01 0.000E+00

     total cpu time spent up to now is     16.10 secs

     total energy              =     -91.53909952 Ry
     Harris-Foulkes estimate   =     -91.53910509 Ry
     estimated scf accuracy    <       0.00001458 Ry

     iteration # 14     ecut=    25.00 Ry     beta=0.30
     Davidson diagonalization with overlap
     ethr =  6.07E-08,  avg # of iterations =  2.0

     negative rho (up, down):  0.420E-01 0.000E+00

     total cpu time spent up to now is     17.07 secs

     total energy              =     -91.53910216 Ry
     Harris-Foulkes estimate   =     -91.53910289 Ry
     estimated scf accuracy    <       0.00000191 Ry

     iteration # 15     ecut=    25.00 Ry     beta=0.30
     Davidson diagonalization with overlap
     ethr =  7.95E-09,  avg # of iterations =  2.0

     negative rho (up, down):  0.424E-01 0.000E+00

     total cpu time spent up to now is     18.15 secs

     total energy              =     -91.53910203 Ry
     Harris-Foulkes estimate   =     -91.53910237 Ry
     estimated scf accuracy    <       0.00000071 Ry

     iteration # 16     ecut=    25.00 Ry     beta=0.30
     Davidson diagonalization with overlap
     ethr =  2.95E-09,  avg # of iterations =  2.0

     negative rho (up, down):  0.426E-01 0.000E+00

     total cpu time spent up to now is     19.12 secs

     total energy              =     -91.53910191 Ry
     Harris-Foulkes estimate   =     -91.53910207 Ry
     estimated scf accuracy    <       0.00000027 Ry

     iteration # 17     ecut=    25.00 Ry     beta=0.30
     Davidson diagonalization with overlap
     ethr =  1.14E-09,  avg # of iterations =  2.0

     negative rho (up, down):  0.427E-01 0.000E+00

     total cpu time spent up to now is     19.99 secs

     total energy              =     -91.53910190 Ry
     Harris-Foulkes estimate   =     -91.53910193 Ry
     estimated scf accuracy    <       0.00000007 Ry

     iteration # 18     ecut=    25.00 Ry     beta=0.30
     Davidson diagonalization with overlap
     ethr =  3.06E-10,  avg # of iterations =  2.0

     negative rho (up, down):  0.427E-01 0.000E+00

     total cpu time spent up to now is     21.21 secs

     total energy              =     -91.53910190 Ry
     Harris-Foulkes estimate   =     -91.53910191 Ry
     estimated scf accuracy    <       0.00000007 Ry

     iteration # 19     ecut=    25.00 Ry     beta=0.30
     Davidson diagonalization with overlap
     ethr =  3.06E-10,  avg # of iterations =  2.0

     negative rho (up, down):  0.427E-01 0.000E+00

     total cpu time spent up to now is     22.10 secs

     total energy              =     -91.53910191 Ry
     Harris-Foulkes estimate   =     -91.53910191 Ry
     estimated scf accuracy    <       0.00000001 Ry

     iteration # 20     ecut=    25.00 Ry     beta=0.30
     Davidson diagonalization with overlap
     ethr =  6.01E-11,  avg # of iterations =  1.0

     negative rho (up, down):  0.427E-01 0.000E+00

     total cpu time spent up to now is     22.41 secs

     End of self-consistent calculation

          k = 0.0000 0.0000 0.0000 ( 28595 PWs)   bands (ev):

   -27.5889 -25.4993 -18.6694 -15.5812 -12.4548 -11.6061 -11.1767 -10.0121
    -9.5393  -8.6782  -7.6635  -6.2641  -1.1480  -1.0408  -0.3324  -0.0236

     the Fermi energy is    -3.4305 ev

!    total energy              =     -91.53910192 Ry
     Harris-Foulkes estimate   =     -91.53910191 Ry
     estimated scf accuracy    <          6.0E-09 Ry

     The total energy is the sum of the following terms:

     one-electron contribution =    -278.21288395 Ry
     hartree contribution      =     142.40936268 Ry
     xc contribution           =     -23.73248076 Ry
     ewald contribution        =      67.99690011 Ry
     smearing contrib. (-TS)   =       0.00000000 Ry

     convergence has been achieved in  20 iterations
 forces --- starting time for forces:
     forces       :      0.00s CPU      0.00s WALL (       1 calls)

     Forces acting on atoms (Ry/au):

 forces --- nonlocal contribution:
     forces       :      0.07s CPU      0.07s WALL (       2 calls)
 forces --- local contribution:
     forces       :      0.08s CPU      0.08s WALL (       3 calls)
 forces --- NLCC contribution:
     forces       :      0.08s CPU      0.08s WALL (       4 calls)
 forces --- Hubbard contribution:
     forces       :      0.08s CPU      0.08s WALL (       5 calls)
 forces --- ionic contribution:
     forces       :      0.08s CPU      0.08s WALL (       6 calls)
 forces --- SCF contribution:
     forces       :      0.31s CPU      0.31s WALL (       7 calls)
     atom   1 type  3   force =     0.05559464   -0.04105903    0.00005999
     atom   2 type  3   force =    -0.00325607   -0.03510922    0.00016674
     atom   3 type  1   force =    -0.00685032    0.03520320    0.00040480
     atom   4 type  1   force =    -0.02268486    0.03101595   -0.00042278
     atom   5 type  2   force =    -0.00947177   -0.00772660   -0.00595736
     atom   6 type  2   force =    -0.00949085   -0.00773225    0.00576595
     atom   7 type  2   force =    -0.00383029    0.00545518   -0.00004787
     atom   8 type  2   force =    -0.00001046    0.01995278    0.00003052

     Total force =     0.097947     Total SCF correction =     0.000143


     entering subroutine stress ...

          total   stress  (Ry/bohr**3)                   (kbar)     P=   -3.43
  -0.00001883  -0.00001102  -0.00000000         -2.77     -1.62     -0.00
  -0.00001102  -0.00002515   0.00000001         -1.62     -3.70      0.00
  -0.00000000   0.00000001  -0.00002597         -0.00      0.00     -3.82


     Writing output data file acetic.save
 
     init_run     :      1.30s CPU      1.46s WALL (       1 calls)
     electrons    :     19.52s CPU     20.81s WALL (       1 calls)
     forces       :      0.31s CPU      0.31s WALL (       8 calls)
     stress       :      0.57s CPU      0.57s WALL (       1 calls)

     Called by init_run:
     wfcinit      :      0.05s CPU      0.05s WALL (       1 calls)
     potinit      :      0.36s CPU      0.40s WALL (       1 calls)

     Called by electrons:
     c_bands      :      1.64s CPU      1.67s WALL (      20 calls)
     sum_band     :      1.39s CPU      1.40s WALL (      20 calls)
     v_of_rho     :      1.22s CPU      1.29s WALL (      21 calls)
     newd         :      1.45s CPU      1.45s WALL (      21 calls)
     mix_rho      :     12.48s CPU     12.54s WALL (      20 calls)

     Called by c_bands:
     init_us_2    :      0.01s CPU      0.02s WALL (      41 calls)
     cegterg      :      1.61s CPU      1.64s WALL (      20 calls)

     Called by *egterg:
     h_psi        :      1.28s CPU      1.28s WALL (      76 calls)
     s_psi        :      0.01s CPU      0.01s WALL (      76 calls)
     g_psi        :      0.00s CPU      0.00s WALL (      55 calls)
     cdiaghg      :      0.25s CPU      0.28s WALL (      75 calls)

     Called by h_psi:
     add_vuspsi   :      0.01s CPU      0.01s WALL (      76 calls)

     General routines
     calbec       :      0.02s CPU      0.03s WALL (      98 calls)
     fft          :      1.92s CPU      2.13s WALL (     340 calls)
     ffts         :      9.00s CPU      9.04s WALL (    8570 calls)
     fftw         :      1.43s CPU      1.43s WALL (    1896 calls)
     interpolate  :      0.27s CPU      0.30s WALL (      41 calls)
     davcio       :      0.00s CPU      0.00s WALL (      21 calls)
 
     Parallel routines
     fft_scatter  :      5.90s CPU      6.13s WALL (   10806 calls)
 
     PWSCF        :    22.05s CPU        23.82s WALL

 
   This run was terminated on:  18:20:33   4Sep2018            

=------------------------------------------------------------------------------=
   JOB DONE.
=------------------------------------------------------------------------------=
