
     Program PWSCF v.4.3        starts on  4Sep2018 at 18:21:42 

     This program is part of the open-source Quantum ESPRESSO suite
     for quantum simulation of materials; please cite
         "P. Giannozzi et al., J. Phys.:Condens. Matter 21 395502 (2009);
          URL http://www.quantum-espresso.org", 
     in publications or presentations arising from this work. More details at
     http://www.quantum-espresso.org/wiki/index.php/Citing_Quantum-ESPRESSO

     Parallel version (MPI), running on    32 processors
     R & G space division:  proc/pool =   32

     Current dimensions of program PWSCF are:
     Max number of different atomic species (ntypx) = **
     Max number of k-points (npk) =  40000
     Max angular momentum in pseudopotentials (lmaxx) =  3
     Waiting for input...

     Atomic positions and unit cell read from directory:
     ./acetic.save/
     Nothing found: using input atomic positions and unit cell


     Subspace diagonalization in iterative solution of the eigenvalue problem:
     parallel, distributed-memory algorithm (size of sub-group:  4*  4 procs)

 
   Stick Mesh
   ----------
   nst =  9681,  nstw =  1209, nsts =  4835
               n.st   n.stw   n.sts    n.g    n.gw   n.gs
   min         302      37     151   20230     891    7145
   max         303      38     152   20235     896    7168
       9681    1209    4835  647433   28595  228945
 


     bravais-lattice index     =           14
     lattice parameter (a_0)   =      24.2289  a.u.
     unit-cell volume          =   13554.2397 (a.u.)^3
     number of atoms/cell      =            8
     number of atomic types    =            3
     number of electrons       =        24.00
     number of Kohn-Sham states=          480
     kinetic-energy cutoff     =      25.0000  Ry
     charge density cutoff     =     200.0000  Ry
     Exchange-correlation      =  SLA  PW   PBE  PBE (1434)
     EXX-fraction              =        0.00

     celldm(1)=  24.228935  celldm(2)=   1.035573  celldm(3)=   0.920219
     celldm(4)=   0.000000  celldm(5)=   0.000000  celldm(6)=   0.000000

     crystal axes: (cart. coord. in units of a_0)
               a(1) = (   1.000000   0.000000   0.000000 )  
               a(2) = (   0.000000   1.035573   0.000000 )  
               a(3) = (   0.000000   0.000000   0.920219 )  

     reciprocal axes: (cart. coord. in units 2 pi/a_0)
               b(1) = (  1.000000  0.000000  0.000000 )  
               b(2) = (  0.000000  0.965649  0.000000 )  
               b(3) = (  0.000000  0.000000  1.086697 )  


     PseudoPot. # 1 for C  read from file C.pbe-van-yufengl.UPF
     MD5 check sum: 53b91e9bc0fbd261922308fb0e321ce8
     Pseudo is Ultrasoft, Zval =  4.0
     Generated by new atomic code, or converted to UPF format
     Using radial grid of  745 points,  4 beta functions with: 
                l(1) =   0
                l(2) =   0
                l(3) =   1
                l(4) =   1
     Q(r) pseudized with  8 coefficients,  rinner =    0.800   0.800   0.800


     PseudoPot. # 2 for H  read from file H.pbe-van_bm.UPF
     MD5 check sum: b5ee9d7bfd3a09ee7748110bda690ff7
     Pseudo is Ultrasoft, Zval =  1.0
     Generated by new atomic code, or converted to UPF format
     Using radial grid of  615 points,  1 beta functions with: 
                l(1) =   0
     Q(r) pseudized with  8 coefficients,  rinner =    0.800

     PseudoPot. # 3 for O  read from file O.pbe-van_bm.UPF
     MD5 check sum: ca2828d9fb1f294809e918903b7648d1
     Pseudo is Ultrasoft, Zval =  6.0
     Generated by new atomic code, or converted to UPF format
     Using radial grid of  737 points,  4 beta functions with: 
                l(1) =   0
                l(2) =   0
                l(3) =   1
                l(4) =   1
     Q(r) pseudized with  8 coefficients,  rinner =    0.800   0.800   0.800


     atomic species   valence    mass     pseudopotential
        C              4.00    12.00000     C ( 1.00)
        H              1.00     1.00790     H ( 1.00)
        O              6.00    15.99900     O ( 1.00)

     No symmetry found

   Cartesian axes

     site n.     atom                  positions (a_0 units)
         1           O   tau(  1) = (   0.0236636  -0.1005350  -0.0000156  )
         2           O   tau(  2) = (   0.0764425   0.0692280  -0.0000156  )
         3           C   tau(  3) = (  -0.1071880   0.0274307  -0.0000156  )
         4           C   tau(  4) = (   0.0070741   0.0038685   0.0000390  )
         5           H   tau(  5) = (  -0.1434633  -0.0044145  -0.0702653  )
         6           H   tau(  6) = (  -0.1436115  -0.0047655   0.0700080  )
         7           H   tau(  7) = (  -0.1184426   0.1120080   0.0002028  )
         8           H   tau(  8) = (  -0.0395979  -0.1436193  -0.0000156  )

     number of k points=     1  Fermi-Dirac smearing, width (Ry)=  0.0019
                       cart. coord. in units 2pi/a_0
        k(    1) = (   0.0000000   0.0000000   0.0000000), wk =   2.0000000

     G cutoff = 2973.9858  ( 647433 G-vectors)     FFT grid: (120,120,108)
     G cutoff = 1486.9929  ( 228945 G-vectors)  smooth grid: ( 80, 80, 72)

     Largest allocated arrays     est. size (Mb)     dimensions
        Kohn-Sham Wavefunctions         6.56 Mb     (    896, 480)
        NL pseudopotentials             0.49 Mb     (    896,  36)
        Each V/rho on FFT grid          0.88 Mb     (  57600)
        Each G-vector array             0.15 Mb     (  20232)
        G-vector shells                 0.08 Mb     (   9963)
     Largest temporary arrays     est. size (Mb)     dimensions
        Auxiliary wavefunctions        26.25 Mb     (    896,1920)
        Each subspace H/S matrix       56.25 Mb     (   1920,1920)
        Each <psi_i|beta_j> matrix      0.26 Mb     (     36, 480)

     The potential is recalculated from file :
     ./acetic.save/charge-density.dat


     negative rho (up, down):  0.427E-01 0.000E+00
     Starting wfc are   22 atomic +  458 random wfc

     total cpu time spent up to now is      1.26 secs

     per-process dynamical memory:    65.7 Mb

     Band Structure Calculation
     Davidson diagonalization with overlap

     ethr =  4.17E-11,  avg # of iterations = 20.0

     total cpu time spent up to now is     69.85 secs

     End of band structure calculation

          k = 0.0000 0.0000 0.0000     band energies (ev):

   -27.5896 -25.5002 -18.6698 -15.5817 -12.4553 -11.6066 -11.1772 -10.0127
    -9.5398  -8.6786  -7.6642  -6.2648  -1.1484  -1.0414  -0.3328  -0.0245
     0.1595   0.2104   0.2692   0.3494   0.7158   0.9590   0.9873   0.9985
     1.0305   1.1006   1.1334   1.2195   1.2450   1.2725   1.3276   1.3877
     1.7424   1.9747   1.9938   2.0570   2.0797   2.1203   2.1398   2.1526
     2.1858   2.5827   2.7140   2.8150   2.9284   3.0653   3.2379   3.3778
     3.4346   3.4839   3.5673   3.5883   3.6461   3.6631   3.7173   3.7462
     3.8353   3.8493   3.8833   3.9183   3.9517   3.9724   4.0998   4.1004
     4.1898   4.3204   4.3906   4.4571   4.4712   4.5474   4.5521   4.5609
     4.5634   4.6139   4.6322   4.6354   4.6653   4.7926   4.7991   4.8025
     4.8369   4.8552   4.8685   4.8810   4.8852   4.9323   5.0712   5.2098
     5.2164   5.2943   5.3176   5.3590   5.4016   5.4313   5.5469   5.7440
     5.8311   6.0302   6.1419   6.2979   6.3705   6.4830   6.5351   6.7322
     6.9435   7.0326   7.0671   7.0855   7.1180   7.1451   7.2234   7.2260
     7.2807   7.2811   7.3069   7.3573   7.3612   7.4043   7.4845   7.5510
     7.6032   7.6121   7.7072   7.7437   7.7815   7.7935   7.8125   7.8498
     7.8853   7.9071   7.9126   7.9616   7.9700   7.9942   8.0024   8.0146
     8.0398   8.0588   8.0884   8.0942   8.0982   8.1379   8.1591   8.2777
     8.2812   8.3115   8.4353   8.4857   8.5036   8.5075   8.5314   8.6531
     8.6753   8.7526   8.7876   8.8159   8.8685   8.8866   8.9222   8.9474
     8.9611   9.0104   9.1713   9.2072   9.2874   9.3403   9.3587   9.3851
     9.4105   9.4572   9.4850   9.5284   9.5928   9.6569   9.7071   9.7906
     9.9418   9.9625  10.0110  10.0547  10.1008  10.1567  10.3191  10.4063
    10.4099  10.4243  10.5629  10.5630  10.5873  10.6464  10.6550  10.6646
    10.6971  10.7339  10.7534  10.7666  10.7694  10.7903  10.8316  10.8351
    10.8660  10.8922  10.9549  11.0971  11.1191  11.2486  11.3165  11.3230
    11.4123  11.4138  11.4798  11.5449  11.5655  11.5789  11.6419  11.6616
    11.6950  11.7018  11.8320  11.8409  11.8716  11.8980  11.9064  11.9310
    11.9500  11.9703  11.9771  12.0229  12.0638  12.0787  12.0852  12.1370
    12.1668  12.2159  12.2231  12.2258  12.2658  12.2699  12.2945  12.4427
    12.4446  12.5167  12.5614  12.5987  12.6017  12.6208  12.6649  12.7377
    12.7467  12.7701  12.8022  12.9214  12.9274  12.9423  13.0616  13.1524
    13.1889  13.2270  13.2387  13.3217  13.3581  13.3964  13.4476  13.4526
    13.4562  13.4796  13.4956  13.5019  13.5072  13.5760  13.6228  13.7375
    13.7519  13.8209  13.9079  13.9396  14.0227  14.0560  14.0627  14.1307
    14.1748  14.2742  14.3032  14.3329  14.4098  14.5251  14.5738  14.6181
    14.6400  14.6908  14.7353  14.7771  14.8279  14.8618  14.8680  14.8894
    14.8982  14.9098  14.9300  14.9501  14.9589  14.9867  15.0170  15.0300
    15.0384  15.0416  15.0691  15.0810  15.1094  15.1318  15.1768  15.2060
    15.2963  15.3496  15.3854  15.4215  15.5057  15.5133  15.5958  15.6650
    15.6690  15.7558  15.7803  15.7952  15.8148  15.8375  15.8434  15.8913
    15.8979  15.9388  15.9734  16.0157  16.0317  16.0966  16.1216  16.1290
    16.1311  16.1464  16.1768  16.1962  16.2599  16.2897  16.3708  16.4186
    16.4767  16.5090  16.5916  16.6470  16.7295  16.7494  16.7628  16.8059
    16.8377  16.8863  16.9241  16.9627  17.0193  17.0676  17.1069  17.1562
    17.2050  17.2153  17.2721  17.2813  17.3273  17.3326  17.3341  17.3820
    17.3979  17.4317  17.4446  17.4730  17.4933  17.5025  17.5135  17.5207
    17.5272  17.5587  17.5699  17.5833  17.6054  17.6131  17.6559  17.6900
    17.7607  17.7946  17.8388  17.8884  17.8914  17.9290  17.9518  17.9922
    18.0189  18.0248  18.0346  18.0429  18.0709  18.0838  18.0907  18.1035
    18.1166  18.1307  18.1381  18.1559  18.1661  18.2041  18.2223  18.2370
    18.2540  18.2610  18.2647  18.2802  18.3196  18.3499  18.3656  18.3873
    18.4241  18.5526  18.6341  18.6471  18.7270  18.7733  18.8071  18.8715
    18.9063  18.9435  18.9448  19.0016  19.0170  19.0415  19.0697  19.0943
    19.1174  19.2922  19.3329  19.3683  19.4969  19.5066  19.5156  19.6688
    19.6879  19.8430  19.8609  19.9004  19.9011  19.9391  19.9751  20.0317
    20.0577  20.1583  20.1693  20.2629  20.2940  20.3037  20.3407  20.3640
    20.4083  20.4284  20.4587  20.4780  20.5443  20.5518  20.5633  20.5685
    20.5947  20.5958  20.6260  20.6435  20.6659  20.6694  20.6855  20.7124
    20.7318  20.8171  20.8239  20.8498  20.8638  20.9130  20.9343  20.9394

     the Fermi energy is    -3.3251 ev

     Writing output data file acetic.save
 
     init_run     :      0.99s CPU      1.16s WALL (       1 calls)
     electrons    :     68.28s CPU     68.69s WALL (       1 calls)

     Called by init_run:
     wfcinit      :      0.00s CPU      0.00s WALL (       1 calls)
     potinit      :      0.16s CPU      0.20s WALL (       1 calls)

     Called by electrons:
     c_bands      :     68.25s CPU     68.59s WALL (       1 calls)
     v_of_rho     :      0.08s CPU      0.10s WALL (       1 calls)
     newd         :      0.10s CPU      0.10s WALL (       1 calls)

     Called by c_bands:
     init_us_2    :      0.00s CPU      0.00s WALL (       1 calls)
     cegterg      :     67.17s CPU     67.48s WALL (       1 calls)

     Called by *egterg:
     h_psi        :     10.06s CPU     10.10s WALL (      22 calls)
     s_psi        :      0.06s CPU      0.06s WALL (      22 calls)
     g_psi        :      0.04s CPU      0.04s WALL (      20 calls)
     cdiaghg      :     48.70s CPU     48.93s WALL (      21 calls)

     Called by h_psi:
     add_vuspsi   :      0.06s CPU      0.06s WALL (      22 calls)

     General routines
     calbec       :      0.08s CPU      0.08s WALL (      22 calls)
     fft          :      0.37s CPU      0.51s WALL (      12 calls)
     ffts         :      0.00s CPU      0.00s WALL (       1 calls)
     fftw         :      9.41s CPU      9.44s WALL (   13340 calls)
     interpolate  :      0.02s CPU      0.02s WALL (       1 calls)
     davcio       :      0.00s CPU      0.09s WALL (       3 calls)
 
     Parallel routines
     fft_scatter  :      3.57s CPU      3.71s WALL (   13353 calls)
 
     PWSCF        :  1m10.87s CPU     1m12.01s WALL

 
   This run was terminated on:  18:22:54   4Sep2018            

=------------------------------------------------------------------------------=
   JOB DONE.
=------------------------------------------------------------------------------=
