
     Program PWSCF v.4.3        starts on 29Aug2018 at 11:52: 0 

     This program is part of the open-source Quantum ESPRESSO suite
     for quantum simulation of materials; please cite
         "P. Giannozzi et al., J. Phys.:Condens. Matter 21 395502 (2009);
          URL http://www.quantum-espresso.org", 
     in publications or presentations arising from this work. More details at
     http://www.quantum-espresso.org/wiki/index.php/Citing_Quantum-ESPRESSO

     Parallel version (MPI), running on    64 processors
     R & G space division:  proc/pool =   64

     Current dimensions of program PWSCF are:
     Max number of different atomic species (ntypx) = **
     Max number of k-points (npk) =  40000
     Max angular momentum in pseudopotentials (lmaxx) =  3
     Waiting for input...

     Atomic positions and unit cell read from directory:
     ./cro2.O25-FCH.save/
 

     Subspace diagonalization in iterative solution of the eigenvalue problem:
     parallel, distributed-memory algorithm (size of sub-group:  5*  5 procs)

 
   Stick Mesh
   ----------
   nst =  6657,  nstw =   673, nsts =  2669
               n.st   n.stw   n.sts    n.g    n.gw   n.gs
   min         104      10      41    6328     199    1583
   max         105      12      42    6332     205    1620
       6657     673    2669  405123   12877  102397
 


     bravais-lattice index     =           14
     lattice parameter (a_0)   =      16.7090  a.u.
     unit-cell volume          =    4616.9515 (a.u.)^3
     number of atoms/cell      =           72
     number of atomic types    =            3
     number of electrons       =       624.00
     number of Kohn-Sham states=         1122
     kinetic-energy cutoff     =      30.0000  Ry
     charge density cutoff     =     300.0000  Ry
     Exchange-correlation      = SLA  PW   PBE  PBE (1434)
     EXX-fraction              =        0.00

     celldm(1)=  16.708958  celldm(2)=   1.000000  celldm(3)=   0.989708
     celldm(4)=   0.000000  celldm(5)=   0.000000  celldm(6)=   0.000000

     crystal axes: (cart. coord. in units of a_0)
               a(1) = (   1.000000   0.000000   0.000000 )  
               a(2) = (   0.000000   1.000000   0.000000 )  
               a(3) = (   0.000000   0.000000   0.989708 )  

     reciprocal axes: (cart. coord. in units 2 pi/a_0)
               b(1) = (  1.000000  0.000000  0.000000 )  
               b(2) = (  0.000000  1.000000  0.000000 )  
               b(3) = (  0.000000  0.000000  1.010399 )  


     PseudoPot. # 1 for Cr read from file Cr.pbe-van-yufengl.UPF
     MD5 check sum: b3ad88ce73ccf30ec9a6cdad427f0885
     Pseudo is Ultrasoft, Zval = 14.0
     Generated by new atomic code, or converted to UPF format
     Using radial grid of  857 points,  6 beta functions with: 
                l(1) =   0
                l(2) =   0
                l(3) =   1
                l(4) =   1
                l(5) =   2
                l(6) =   2
     Q(r) pseudized with  6 coefficients,  rinner =    1.000   1.000   1.000
                                                       1.000   1.000

     PseudoPot. # 2 for O  read from file O.pbe-van_bm.UPF
     MD5 check sum: ca2828d9fb1f294809e918903b7648d1
     Pseudo is Ultrasoft, Zval =  6.0
     Generated by new atomic code, or converted to UPF format
     Using radial grid of  737 points,  4 beta functions with: 
                l(1) =   0
                l(2) =   0
                l(3) =   1
                l(4) =   1
     Q(r) pseudized with  8 coefficients,  rinner =    0.800   0.800   0.800


     PseudoPot. # 3 for ox read from file O.pbe-van-dgp-1s1.UPF
     MD5 check sum: 2083901d62884ac3a15d661bda1575b3
     Pseudo is Ultrasoft, Zval =  7.0
     Generated by new atomic code, or converted to UPF format
     Using radial grid of  737 points,  4 beta functions with: 
                l(1) =   0
                l(2) =   0
                l(3) =   1
                l(4) =   1
     Q(r) pseudized with  8 coefficients,  rinner =    0.800   0.800   0.800


     atomic species   valence    mass     pseudopotential
        Cr            14.00    52.00000     Cr( 1.00)
        O              6.00    15.99900     O ( 1.00)
        OX             7.00    15.99900     ox( 1.00)

     Starting magnetic structure 
     atomic species   magnetization
        Cr           1.000
        O            0.000
        OX           0.000

     LDA+U calculation, Hubbard_lmax = 2
     atomic species  L   Hubbard U  Hubbard alpha
        Cr           2    0.257245    0.000000

      4 Sym.Ops. (no inversion)


   Cartesian axes

     site n.     atom                  positions (a_0 units)
         1           Cr  tau(  1) = (   0.0000000   0.0000000   0.0000000  )
         2           Cr  tau(  2) = (   0.0000000   0.0000000   0.3299027  )
         3           Cr  tau(  3) = (   0.0000000   0.0000000   0.6598055  )
         4           Cr  tau(  4) = (   0.0000000   0.5000000   0.0000000  )
         5           Cr  tau(  5) = (   0.0000000   0.5000000   0.3299027  )
         6           Cr  tau(  6) = (   0.0000000   0.5000000   0.6598055  )
         7           Cr  tau(  7) = (   0.5000000   0.0000000   0.0000000  )
         8           Cr  tau(  8) = (   0.5000000   0.0000000   0.3299027  )
         9           Cr  tau(  9) = (   0.5000000   0.0000000   0.6598055  )
        10           Cr  tau( 10) = (   0.5000000   0.5000000   0.0000000  )
        11           Cr  tau( 11) = (   0.5000000   0.5000000   0.3299027  )
        12           Cr  tau( 12) = (   0.5000000   0.5000000   0.6598055  )
        13           Cr  tau( 13) = (   0.2500000   0.2500000   0.1649514  )
        14           Cr  tau( 14) = (   0.2500000   0.2500000   0.4948541  )
        15           Cr  tau( 15) = (   0.2500000   0.2500000   0.8247569  )
        16           Cr  tau( 16) = (   0.2500000   0.7500000   0.1649514  )
        17           Cr  tau( 17) = (   0.2500000   0.7500000   0.4948541  )
        18           Cr  tau( 18) = (   0.2500000   0.7500000   0.8247569  )
        19           Cr  tau( 19) = (   0.7500000   0.2500000   0.1649514  )
        20           Cr  tau( 20) = (   0.7500000   0.2500000   0.4948541  )
        21           Cr  tau( 21) = (   0.7500000   0.2500000   0.8247569  )
        22           Cr  tau( 22) = (   0.7500000   0.7500000   0.1649514  )
        23           Cr  tau( 23) = (   0.7500000   0.7500000   0.4948541  )
        24           Cr  tau( 24) = (   0.7500000   0.7500000   0.8247569  )
        25           OX  tau( 25) = (   0.1505000   0.1505000   0.0000000  )
        26           O   tau( 26) = (   0.1505000   0.1505000   0.3299027  )
        27           O   tau( 27) = (   0.1505000   0.1505000   0.6598055  )
        28           O   tau( 28) = (   0.1505000   0.6505000   0.0000000  )
        29           O   tau( 29) = (   0.1505000   0.6505000   0.3299027  )
        30           O   tau( 30) = (   0.1505000   0.6505000   0.6598055  )
        31           O   tau( 31) = (   0.6505000   0.1505000   0.0000000  )
        32           O   tau( 32) = (   0.6505000   0.1505000   0.3299027  )
        33           O   tau( 33) = (   0.6505000   0.1505000   0.6598055  )
        34           O   tau( 34) = (   0.6505000   0.6505000   0.0000000  )
        35           O   tau( 35) = (   0.6505000   0.6505000   0.3299027  )
        36           O   tau( 36) = (   0.6505000   0.6505000   0.6598055  )
        37           O   tau( 37) = (   0.3495000   0.3495000   0.0000000  )
        38           O   tau( 38) = (   0.3495000   0.3495000   0.3299027  )
        39           O   tau( 39) = (   0.3495000   0.3495000   0.6598055  )
        40           O   tau( 40) = (   0.3495000   0.8495000   0.0000000  )
        41           O   tau( 41) = (   0.3495000   0.8495000   0.3299027  )
        42           O   tau( 42) = (   0.3495000   0.8495000   0.6598055  )
        43           O   tau( 43) = (   0.8495000   0.3495000   0.0000000  )
        44           O   tau( 44) = (   0.8495000   0.3495000   0.3299027  )
        45           O   tau( 45) = (   0.8495000   0.3495000   0.6598055  )
        46           O   tau( 46) = (   0.8495000   0.8495000   0.0000000  )
        47           O   tau( 47) = (   0.8495000   0.8495000   0.3299027  )
        48           O   tau( 48) = (   0.8495000   0.8495000   0.6598055  )
        49           O   tau( 49) = (   0.0995000   0.4005000   0.1649514  )
        50           O   tau( 50) = (   0.0995000   0.4005000   0.4948541  )
        51           O   tau( 51) = (   0.0995000   0.4005000   0.8247569  )
        52           O   tau( 52) = (   0.0995000   0.9005000   0.1649514  )
        53           O   tau( 53) = (   0.0995000   0.9005000   0.4948541  )
        54           O   tau( 54) = (   0.0995000   0.9005000   0.8247569  )
        55           O   tau( 55) = (   0.5995000   0.4005000   0.1649514  )
        56           O   tau( 56) = (   0.5995000   0.4005000   0.4948541  )
        57           O   tau( 57) = (   0.5995000   0.4005000   0.8247569  )
        58           O   tau( 58) = (   0.5995000   0.9005000   0.1649514  )
        59           O   tau( 59) = (   0.5995000   0.9005000   0.4948541  )
        60           O   tau( 60) = (   0.5995000   0.9005000   0.8247569  )
        61           O   tau( 61) = (   0.4005000   0.0995000   0.1649514  )
        62           O   tau( 62) = (   0.4005000   0.0995000   0.4948541  )
        63           O   tau( 63) = (   0.4005000   0.0995000   0.8247569  )
        64           O   tau( 64) = (   0.4005000   0.5995000   0.1649514  )
        65           O   tau( 65) = (   0.4005000   0.5995000   0.4948541  )
        66           O   tau( 66) = (   0.4005000   0.5995000   0.8247569  )
        67           O   tau( 67) = (   0.9005000   0.0995000   0.1649514  )
        68           O   tau( 68) = (   0.9005000   0.0995000   0.4948541  )
        69           O   tau( 69) = (   0.9005000   0.0995000   0.8247569  )
        70           O   tau( 70) = (   0.9005000   0.5995000   0.1649514  )
        71           O   tau( 71) = (   0.9005000   0.5995000   0.4948541  )
        72           O   tau( 72) = (   0.9005000   0.5995000   0.8247569  )

     number of k points=     2  Fermi-Dirac smearing, width (Ry)=  0.0019
                       cart. coord. in units 2pi/a_0
        k(    1) = (   0.0000000   0.0000000   0.0000000), wk =   1.0000000
        k(    2) = (   0.0000000   0.0000000   0.0000000), wk =   1.0000000

     G cutoff = 2121.5842  ( 405123 G-vectors)     FFT grid: ( 96, 96, 96)
     G cutoff =  848.6337  ( 102397 G-vectors)  smooth grid: ( 60, 60, 60)

     Largest allocated arrays     est. size (Mb)     dimensions
        Kohn-Sham Wavefunctions         3.46 Mb     (    202,1122)
        Atomic wavefunctions            1.33 Mb     (    202, 432)
        NL pseudopotentials             2.52 Mb     (    202, 816)
        Each V/rho on FFT grid          0.56 Mb     (  18432,   2)
        Each G-vector array             0.05 Mb     (   6332)
        G-vector shells                 0.02 Mb     (   3094)
     Largest temporary arrays     est. size (Mb)     dimensions
        Auxiliary wavefunctions        13.83 Mb     (    202,4488)
        Each subspace H/S matrix      307.34 Mb     (   4488,4488)
        Each <psi_i|beta_j> matrix     13.97 Mb     (    816,1122)

     The potential is recalculated from file :
     ./cro2.O25-FCH.save/charge-density.dat


     Parameters of the lda+U calculation:
     Number of iteration with fixed ns =  0
     Starting ns and Hubbard U :
 enter write_ns
U( 1) =  3.5000      U( 2) =  0.0000      U( 3) =  0.0000
alpha( 1) =  0.0000      alpha( 2) =  0.0000      alpha( 3) =  0.0000
atom    1   Tr[ns(na)]=   5.0455794
atom    1   spin  1
eigenvalues:  0.5346222 0.5530691 0.8578673 0.9153302 0.9881121
 eigenvectors
 1  -0.5320296 -0.0000000  0.0000000  0.0000000  0.8467258
 2   0.0000000 -0.7071068  0.7071068  0.0000000 -0.0000000
 3   0.0000000 -0.0000000 -0.0000000  1.0000000 -0.0000000
 4   0.0000000 -0.7071068 -0.7071068 -0.0000000 -0.0000000
 5   0.8467258 -0.0000000 -0.0000000  0.0000000  0.5320296
 occupations
 0.860 -0.000 -0.000  0.000  0.204
-0.000  0.734  0.181  0.000  0.000
-0.000  0.181  0.734  0.000  0.000
 0.000  0.000  0.000  0.858 -0.000
 0.204  0.000  0.000 -0.000  0.663
atom    1   spin  2
eigenvalues:  0.1285034 0.1434875 0.1544072 0.3689025 0.4012779
 eigenvectors
 1   0.8225018  0.0000000  0.0000000 -0.0000000  0.5687625
 2  -0.0000000  0.0000000  0.0000000 -1.0000000 -0.0000000
 3  -0.0000000 -0.7071068 -0.7071068 -0.0000000  0.0000000
 4  -0.5687625 -0.0000000  0.0000000 -0.0000000  0.8225018
 5   0.0000000 -0.7071068  0.7071068 -0.0000000 -0.0000000
 occupations
 0.206 -0.000 -0.000  0.000 -0.112
-0.000  0.278 -0.123  0.000  0.000
-0.000 -0.123  0.278 -0.000  0.000
 0.000  0.000 -0.000  0.143 -0.000
-0.112  0.000  0.000 -0.000  0.291
atom    2   Tr[ns(na)]=   5.0915559
atom    2   spin  1
eigenvalues:  0.5539669 0.5893881 0.7632020 0.9052961 0.9881269
 eigenvectors
 1   0.0000000  0.7071064 -0.7071064 -0.0010284 -0.0000000
 2  -0.5432015 -0.0005226 -0.0005226  0.0000000  0.8396020
 3   0.0000000  0.0007272 -0.0007272  0.9999995 -0.0000000
 4  -0.0011368 -0.7071054 -0.7071054 -0.0000000 -0.0016157
 5   0.8396016 -0.0012955 -0.0012955  0.0000000  0.5431996
 occupations
 0.870 -0.000 -0.000  0.000  0.182
-0.000  0.730  0.176  0.000  0.000
-0.000  0.176  0.730 -0.000  0.000
 0.000  0.000 -0.000  0.763 -0.000
 0.182  0.000  0.000 -0.000  0.707
atom    2   spin  2
eigenvalues:  0.1294775 0.1668010 0.1703874 0.4061355 0.4187745
 eigenvectors
 1   0.8305089 -0.0025682 -0.0025682 -0.0000000  0.5569934
 2  -0.0026593 -0.7071020 -0.7071020  0.0000000 -0.0025554
 3   0.0000000  0.0009480 -0.0009480 -0.9999991 -0.0000000
 4  -0.0000000 -0.7071061  0.7071061 -0.0013406  0.0000000
 5  -0.5569989 -0.0004533 -0.0004533 -0.0000000  0.8305130
 occupations
 0.219  0.000  0.000  0.000 -0.134
 0.000  0.286 -0.120  0.000 -0.000
 0.000 -0.120  0.286 -0.000 -0.000
 0.000  0.000 -0.000  0.170 -0.000
-0.134 -0.000 -0.000 -0.000  0.329
atom    3   Tr[ns(na)]=   5.0915559
atom    3   spin  1
eigenvalues:  0.5539669 0.5893881 0.7632020 0.9052961 0.9881269
 eigenvectors
 1   0.0000000  0.7071064 -0.7071064  0.0010284 -0.0000000
 2  -0.5432015  0.0005226  0.0005226  0.0000000  0.8396020
 3   0.0000000 -0.0007272  0.0007272  0.9999995 -0.0000000
 4   0.0011368 -0.7071054 -0.7071054 -0.0000000  0.0016157
 5   0.8396016  0.0012955  0.0012955  0.0000000  0.5431996
 occupations
 0.870  0.000  0.000  0.000  0.182
 0.000  0.730  0.176 -0.000 -0.000
 0.000  0.176  0.730  0.000 -0.000
 0.000 -0.000  0.000  0.763 -0.000
 0.182 -0.000 -0.000 -0.000  0.707
atom    3   spin  2
eigenvalues:  0.1294775 0.1668010 0.1703874 0.4061355 0.4187745
 eigenvectors
 1   0.8305089  0.0025682  0.0025682 -0.0000000  0.5569934
 2   0.0026593 -0.7071020 -0.7071020  0.0000000  0.0025554
 3   0.0000000 -0.0009480  0.0009480 -0.9999991 -0.0000000
 4  -0.0000000 -0.7071061  0.7071061  0.0013406  0.0000000
 5  -0.5569989  0.0004533  0.0004533 -0.0000000  0.8305130
 occupations
 0.219 -0.000 -0.000  0.000 -0.134
-0.000  0.286 -0.120 -0.000  0.000
-0.000 -0.120  0.286  0.000  0.000
 0.000 -0.000  0.000  0.170 -0.000
-0.134  0.000  0.000 -0.000  0.329
atom    4   Tr[ns(na)]=   5.0943223
atom    4   spin  1
eigenvalues:  0.5541163 0.5902692 0.7654383 0.9003601 0.9882299
 eigenvectors
 1  -0.0000000 -0.7051139  0.7090940  0.0000000  0.0000000
 2  -0.5417111 -0.0000000 -0.0000000  0.0042608  0.8405539
 3   0.0007857 -0.0000000 -0.0000000  0.9999893 -0.0045626
 4   0.0000000 -0.7090940 -0.7051139 -0.0000000 -0.0000000
 5   0.8405644 -0.0000000 -0.0000000  0.0018112  0.5417086
 occupations
 0.871 -0.000 -0.000  0.001  0.181
-0.000  0.728  0.173  0.000  0.000
-0.000  0.173  0.726  0.000  0.000
 0.001  0.000  0.000  0.765 -0.000
 0.181  0.000  0.000 -0.000  0.707
atom    4   spin  2
eigenvalues:  0.1299242 0.1676319 0.1715392 0.4070222 0.4197910
 eigenvectors
 1  -0.8309314 -0.0000000 -0.0000000  0.0048795 -0.5563534
 2   0.0000000  0.7075160  0.7066974 -0.0000000 -0.0000000
 3   0.0040309  0.0000000  0.0000000  0.9999881  0.0027501
 4  -0.0000000 -0.7066974  0.7075160 -0.0000000  0.0000000
 5  -0.5563602  0.0000000 -0.0000000 -0.0000425  0.8309412
 occupations
 0.220 -0.000 -0.000  0.000 -0.134
-0.000  0.287 -0.120  0.000  0.000
-0.000 -0.120  0.287 -0.000  0.000
 0.000  0.000 -0.000  0.172  0.000
-0.134  0.000  0.000  0.000  0.330
atom    5   Tr[ns(na)]=   5.0906367
atom    5   spin  1
eigenvalues:  0.5545471 0.5906810 0.7624039 0.9024408 0.9880627
 eigenvectors
 1   0.0100413  0.7075787 -0.7063941  0.0014903 -0.0153859
 2  -0.5424692  0.0133375 -0.0126421  0.0010834  0.8398739
 3  -0.0028195  0.0044202  0.0022902 -0.9999835 -0.0005669
 4  -0.0025405 -0.7064921 -0.7076997 -0.0047359 -0.0010680
 5   0.8400071 -0.0019669 -0.0018527 -0.0026890  0.5425620
 occupations
 0.871 -0.000  0.000 -0.000  0.181
-0.000  0.728  0.174  0.000  0.000
 0.000  0.174  0.729  0.001 -0.001
-0.000  0.000  0.001  0.762 -0.000
 0.181  0.000 -0.001 -0.000  0.708
atom    5   spin  2
eigenvalues:  0.1294002 0.1671150 0.1708751 0.4058817 0.4192292
 eigenvectors
 1  -0.8306954 -0.0001383 -0.0004616  0.0003258 -0.5567268
 2  -0.0002013 -0.7064657 -0.7038599 -0.0740706  0.0010161
 3   0.0006858 -0.0517001 -0.0530549  0.9972521 -0.0003828
 4  -0.0202590 -0.7053744  0.7079168  0.0011189  0.0298175
 5  -0.5563579  0.0260836 -0.0248994  0.0007288  0.8301596
 occupations
 0.219 -0.000  0.000 -0.000 -0.134
-0.000  0.286 -0.119 -0.000  0.000
 0.000 -0.119  0.287 -0.000 -0.000
-0.000 -0.000 -0.000  0.171  0.000
-0.134  0.000 -0.000  0.000  0.329
atom    6   Tr[ns(na)]=   5.0906367
atom    6   spin  1
eigenvalues:  0.5545471 0.5906810 0.7624039 0.9024408 0.9880627
 eigenvectors
 1  -0.0100413  0.7075787 -0.7063941 -0.0014903  0.0153859
 2  -0.5424692 -0.0133375  0.0126421  0.0010834  0.8398739
 3  -0.0028195 -0.0044202 -0.0022902 -0.9999835 -0.0005669
 4   0.0025405 -0.7064921 -0.7076997  0.0047359  0.0010680
 5   0.8400071  0.0019669  0.0018527 -0.0026890  0.5425620
 occupations
 0.871  0.000 -0.000 -0.000  0.181
 0.000  0.728  0.174 -0.000 -0.000
-0.000  0.174  0.729 -0.001  0.001
-0.000 -0.000 -0.001  0.762 -0.000
 0.181 -0.000  0.001 -0.000  0.708
atom    6   spin  2
eigenvalues:  0.1294002 0.1671150 0.1708751 0.4058817 0.4192292
 eigenvectors
 1   0.8306954 -0.0001383 -0.0004616 -0.0003258  0.5567268
 2   0.0002013 -0.7064657 -0.7038599  0.0740706 -0.0010161
 3   0.0006858  0.0517001  0.0530549  0.9972521 -0.0003828
 4  -0.0202590  0.7053744 -0.7079168  0.0011189  0.0298175
 5  -0.5563579 -0.0260836  0.0248994  0.0007288  0.8301596
 occupations
 0.219  0.000 -0.000 -0.000 -0.134
 0.000  0.286 -0.119  0.000 -0.000
-0.000 -0.119  0.287  0.000  0.000
-0.000  0.000  0.000  0.171  0.000
-0.134 -0.000  0.000  0.000  0.329
atom    7   Tr[ns(na)]=   5.0943223
atom    7   spin  1
eigenvalues:  0.5541163 0.5902692 0.7654383 0.9003601 0.9882299
 eigenvectors
 1  -0.0000000 -0.7090940  0.7051139  0.0000000  0.0000000
 2   0.5417111  0.0000000  0.0000000  0.0042608 -0.8405539
 3   0.0007857  0.0000000  0.0000000 -0.9999893 -0.0045626
 4   0.0000000 -0.7051139 -0.7090940 -0.0000000 -0.0000000
 5   0.8405644 -0.0000000 -0.0000000 -0.0018112  0.5417086
 occupations
 0.871 -0.000 -0.000 -0.001  0.181
-0.000  0.726  0.173  0.000  0.000
-0.000  0.173  0.728  0.000  0.000
-0.001  0.000  0.000  0.765  0.000
 0.181  0.000  0.000  0.000  0.707
atom    7   spin  2
eigenvalues:  0.1299242 0.1676319 0.1715392 0.4070222 0.4197910
 eigenvectors
 1   0.8309314  0.0000000  0.0000000  0.0048795  0.5563534
 2   0.0000000  0.7066974  0.7075160 -0.0000000 -0.0000000
 3   0.0040309 -0.0000000 -0.0000000 -0.9999881  0.0027501
 4  -0.0000000 -0.7075160  0.7066974 -0.0000000  0.0000000
 5  -0.5563602  0.0000000 -0.0000000  0.0000425  0.8309412
 occupations
 0.220 -0.000 -0.000 -0.000 -0.134
-0.000  0.287 -0.120  0.000  0.000
-0.000 -0.120  0.287 -0.000  0.000
-0.000  0.000 -0.000  0.172 -0.000
-0.134  0.000  0.000 -0.000  0.330
atom    8   Tr[ns(na)]=   5.0906367
atom    8   spin  1
eigenvalues:  0.5545471 0.5906810 0.7624039 0.9024408 0.9880627
 eigenvectors
 1  -0.0100413  0.7063941 -0.7075787  0.0014903  0.0153859
 2  -0.5424692 -0.0126421  0.0133375 -0.0010834  0.8398739
 3  -0.0028195  0.0022902  0.0044202  0.9999835 -0.0005669
 4  -0.0025405 -0.7076997 -0.7064921  0.0047359 -0.0010680
 5  -0.8400071  0.0018527  0.0019669 -0.0026890 -0.5425620
 occupations
 0.871  0.000 -0.000  0.000  0.181
 0.000  0.729  0.174 -0.001 -0.001
-0.000  0.174  0.728 -0.000  0.000
 0.000 -0.001 -0.000  0.762  0.000
 0.181 -0.001  0.000  0.000  0.708
atom    8   spin  2
eigenvalues:  0.1294002 0.1671150 0.1708751 0.4058817 0.4192292
 eigenvectors
 1  -0.8306954 -0.0004616 -0.0001383 -0.0003258 -0.5567268
 2  -0.0002013 -0.7038599 -0.7064657  0.0740706  0.0010161
 3   0.0006858 -0.0530549 -0.0517001 -0.9972521 -0.0003828
 4  -0.0202590  0.7079168 -0.7053744 -0.0011189  0.0298175
 5  -0.5563579 -0.0248994  0.0260836 -0.0007288  0.8301596
 occupations
 0.219  0.000 -0.000  0.000 -0.134
 0.000  0.287 -0.119  0.000 -0.000
-0.000 -0.119  0.286  0.000  0.000
 0.000  0.000  0.000  0.171 -0.000
-0.134 -0.000  0.000 -0.000  0.329
atom    9   Tr[ns(na)]=   5.0906367
atom    9   spin  1
eigenvalues:  0.5545471 0.5906810 0.7624039 0.9024408 0.9880627
 eigenvectors
 1   0.0100413  0.7063941 -0.7075787 -0.0014903 -0.0153859
 2  -0.5424692  0.0126421 -0.0133375 -0.0010834  0.8398739
 3  -0.0028195 -0.0022902 -0.0044202  0.9999835 -0.0005669
 4   0.0025405 -0.7076997 -0.7064921 -0.0047359  0.0010680
 5  -0.8400071 -0.0018527 -0.0019669 -0.0026890 -0.5425620
 occupations
 0.871 -0.000  0.000  0.000  0.181
-0.000  0.729  0.174  0.001  0.001
 0.000  0.174  0.728  0.000 -0.000
 0.000  0.001  0.000  0.762  0.000
 0.181  0.001 -0.000  0.000  0.708
atom    9   spin  2
eigenvalues:  0.1294002 0.1671150 0.1708751 0.4058817 0.4192292
 eigenvectors
 1   0.8306954 -0.0004616 -0.0001383  0.0003258  0.5567268
 2   0.0002013 -0.7038599 -0.7064657 -0.0740706 -0.0010161
 3   0.0006858  0.0530549  0.0517001 -0.9972521 -0.0003828
 4  -0.0202590 -0.7079168  0.7053744 -0.0011189  0.0298175
 5  -0.5563579  0.0248994 -0.0260836 -0.0007288  0.8301596
 occupations
 0.219 -0.000  0.000  0.000 -0.134
-0.000  0.287 -0.119 -0.000  0.000
 0.000 -0.119  0.286 -0.000 -0.000
 0.000 -0.000 -0.000  0.171 -0.000
-0.134  0.000 -0.000 -0.000  0.329
atom   10   Tr[ns(na)]=   5.0906144
atom   10   spin  1
eigenvalues:  0.5557483 0.5891850 0.7667354 0.9003284 0.9882613
 eigenvectors
 1  -0.0000000 -0.7071068  0.7071068  0.0000000  0.0000000
 2  -0.5418569 -0.0000000 -0.0000000  0.0000000  0.8404708
 3   0.0000000 -0.0000000 -0.0000000  1.0000000 -0.0000000
 4   0.0000000 -0.7071068 -0.7071068 -0.0000000 -0.0000000
 5   0.8404708 -0.0000000 -0.0000000  0.0000000  0.5418569
 occupations
 0.871 -0.000 -0.000  0.000  0.182
-0.000  0.728  0.172  0.000  0.000
-0.000  0.172  0.728  0.000  0.000
 0.000  0.000  0.000  0.767 -0.000
 0.182  0.000  0.000 -0.000  0.706
atom   10   spin  2
eigenvalues:  0.1294024 0.1671396 0.1702966 0.4065937 0.4169237
 eigenvectors
 1   0.8300900  0.0000000  0.0000000 -0.0000000  0.5576295
 2  -0.0000000 -0.7071068 -0.7071068  0.0000000  0.0000000
 3   0.0000000 -0.0000000 -0.0000000 -1.0000000 -0.0000000
 4  -0.0000000 -0.7071068  0.7071068 -0.0000000  0.0000000
 5  -0.5576295  0.0000000 -0.0000000 -0.0000000  0.8300900
 occupations
 0.219 -0.000 -0.000  0.000 -0.133
-0.000  0.287 -0.120  0.000  0.000
-0.000 -0.120  0.287 -0.000  0.000
 0.000  0.000 -0.000  0.170 -0.000
-0.133  0.000  0.000 -0.000  0.328
atom   11   Tr[ns(na)]=   5.0912618
atom   11   spin  1
eigenvalues:  0.5559181 0.5883677 0.7590484 0.9055959 0.9882552
 eigenvectors
 1   0.0000000  0.7071067 -0.7071067 -0.0003472 -0.0000000
 2  -0.5432945 -0.0051050 -0.0051050  0.0000000  0.8395111
 3   0.0000000  0.0002455 -0.0002455  0.9999999 -0.0000000
 4   0.0045403 -0.7070882 -0.7070882 -0.0000000 -0.0056613
 5   0.8395299  0.0005203  0.0005203  0.0000000  0.5433130
 occupations
 0.870 -0.001 -0.001  0.000  0.182
-0.001  0.731  0.175  0.000  0.001
-0.001  0.175  0.731 -0.000  0.001
 0.000  0.000 -0.000  0.759 -0.000
 0.182  0.001  0.001 -0.000  0.706
atom   11   spin  2
eigenvalues:  0.1296328 0.1666366 0.1716424 0.4070486 0.4191160
 eigenvectors
 1   0.8308012  0.0008987  0.0008987 -0.0000000  0.5565678
 2   0.0024296 -0.7071041 -0.7071041  0.0000000 -0.0013432
 3   0.0000000 -0.0000295  0.0000295 -1.0000000 -0.0000000
 4  -0.0000000 -0.7071068  0.7071068  0.0000417  0.0000000
 5  -0.5565639 -0.0017453 -0.0017453 -0.0000000  0.8308011
 occupations
 0.219  0.000  0.000  0.000 -0.134
 0.000  0.287 -0.120 -0.000 -0.000
 0.000 -0.120  0.287  0.000 -0.000
 0.000 -0.000  0.000  0.172 -0.000
-0.134 -0.000 -0.000 -0.000  0.329
atom   12   Tr[ns(na)]=   5.0912618
atom   12   spin  1
eigenvalues:  0.5559181 0.5883677 0.7590484 0.9055959 0.9882552
 eigenvectors
 1   0.0000000  0.7071067 -0.7071067  0.0003472 -0.0000000
 2  -0.5432945  0.0051050  0.0051050  0.0000000  0.8395111
 3   0.0000000 -0.0002455  0.0002455  0.9999999 -0.0000000
 4  -0.0045403 -0.7070882 -0.7070882 -0.0000000  0.0056613
 5   0.8395299 -0.0005203 -0.0005203  0.0000000  0.5433130
 occupations
 0.870  0.001  0.001  0.000  0.182
 0.001  0.731  0.175 -0.000 -0.001
 0.001  0.175  0.731  0.000 -0.001
 0.000 -0.000  0.000  0.759 -0.000
 0.182 -0.001 -0.001 -0.000  0.706
atom   12   spin  2
eigenvalues:  0.1296328 0.1666366 0.1716424 0.4070486 0.4191160
 eigenvectors
 1   0.8308012 -0.0008987 -0.0008987 -0.0000000  0.5565678
 2  -0.0024296 -0.7071041 -0.7071041  0.0000000  0.0013432
 3   0.0000000  0.0000295 -0.0000295 -1.0000000 -0.0000000
 4  -0.0000000 -0.7071068  0.7071068 -0.0000417  0.0000000
 5  -0.5565639  0.0017453  0.0017453 -0.0000000  0.8308011
 occupations
 0.219 -0.000 -0.000  0.000 -0.134
-0.000  0.287 -0.120  0.000  0.000
-0.000 -0.120  0.287 -0.000  0.000
 0.000  0.000 -0.000  0.172 -0.000
-0.134  0.000  0.000 -0.000  0.329
atom   13   Tr[ns(na)]=   5.0497599
atom   13   spin  1
eigenvalues:  0.5104727 0.5866009 0.8072019 0.9395345 0.9904585
 eigenvectors
 1   0.2011249 -0.6588397 -0.6588397  0.0000000  0.3023398
 2   0.5057700  0.2567495  0.2567495  0.0000000  0.7825318
 3   0.0000000 -0.1792679  0.1792679 -0.9673293 -0.0000000
 4   0.0000000  0.6840051 -0.6840051 -0.2535231 -0.0000000
 5   0.8388954  0.0031623  0.0031623  0.0000000 -0.5442743
 occupations
 0.868  0.011  0.011  0.000 -0.189
 0.011  0.726 -0.205 -0.023  0.014
 0.011 -0.205  0.726  0.023  0.014
 0.000 -0.023  0.023  0.816 -0.000
-0.189  0.014  0.014 -0.000  0.699
atom   13   spin  2
eigenvalues:  0.1182856 0.1503017 0.1703622 0.3610516 0.4154902
 eigenvectors
 1   0.8280530  0.0010199  0.0010199 -0.0000000 -0.5606480
 2   0.0000000 -0.5588819  0.5588819  0.6126190 -0.0000000
 3   0.0000000  0.4331871 -0.4331871  0.7903783 -0.0000000
 4   0.2328103 -0.6438833 -0.6438833 -0.0000000  0.3415082
 5   0.5100271  0.2922554  0.2922554 -0.0000000  0.7543514
 occupations
 0.209  0.008  0.008  0.000  0.134
 0.008  0.264  0.106  0.007  0.012
 0.008  0.106  0.264 -0.007  0.012
 0.000  0.007 -0.007  0.163 -0.000
 0.134  0.012  0.012 -0.000  0.316
atom   14   Tr[ns(na)]=   5.0915932
atom   14   spin  1
eigenvalues:  0.5532877 0.5906575 0.7709584 0.8967600 0.9878705
 eigenvectors
 1   0.0000000 -0.7071068 -0.7071068  0.0000000  0.0000000
 2   0.5437059  0.0000000  0.0000000  0.0000000  0.8392758
 3   0.0000000  0.0000000 -0.0000000 -1.0000000 -0.0000000
 4   0.0000000  0.7071068 -0.7071068  0.0000000 -0.0000000
 5  -0.8392758  0.0000000  0.0000000 -0.0000000  0.5437059
 occupations
 0.870 -0.000 -0.000  0.000 -0.181
-0.000  0.725 -0.172  0.000  0.000
-0.000 -0.172  0.725 -0.000  0.000
 0.000  0.000 -0.000  0.771 -0.000
-0.181  0.000  0.000 -0.000  0.708
atom   14   spin  2
eigenvalues:  0.1278569 0.1679086 0.1711427 0.4057617 0.4193891
 eigenvectors
 1  -0.8288089 -0.0000000 -0.0000000  0.0000000  0.5595318
 2  -0.0000000  0.7071068 -0.7071068 -0.0000000  0.0000000
 3   0.0000000  0.0000000 -0.0000000  1.0000000 -0.0000000
 4   0.0000000 -0.7071068 -0.7071068 -0.0000000  0.0000000
 5   0.5595318  0.0000000  0.0000000 -0.0000000  0.8288089
 occupations
 0.219 -0.000 -0.000  0.000  0.135
-0.000  0.287  0.119  0.000  0.000
-0.000  0.119  0.287  0.000  0.000
 0.000  0.000  0.000  0.171 -0.000
 0.135  0.000  0.000 -0.000  0.328
atom   15   Tr[ns(na)]=   5.0497599
atom   15   spin  1
eigenvalues:  0.5104727 0.5866009 0.8072019 0.9395345 0.9904585
 eigenvectors
 1   0.2011249  0.6588397  0.6588397 -0.0000000  0.3023398
 2   0.5057700 -0.2567495 -0.2567495  0.0000000  0.7825318
 3  -0.0000000 -0.1792679  0.1792679  0.9673293  0.0000000
 4   0.0000000 -0.6840051  0.6840051 -0.2535231 -0.0000000
 5  -0.8388954  0.0031623  0.0031623 -0.0000000  0.5442743
 occupations
 0.868 -0.011 -0.011  0.000 -0.189
-0.011  0.726 -0.205  0.023 -0.014
-0.011 -0.205  0.726 -0.023 -0.014
 0.000  0.023 -0.023  0.816 -0.000
-0.189 -0.014 -0.014 -0.000  0.699
atom   15   spin  2
eigenvalues:  0.1182856 0.1503017 0.1703622 0.3610516 0.4154902
 eigenvectors
 1  -0.8280530  0.0010199  0.0010199  0.0000000  0.5606480
 2   0.0000000  0.5588819 -0.5588819  0.6126190 -0.0000000
 3   0.0000000 -0.4331871  0.4331871  0.7903783 -0.0000000
 4   0.2328103  0.6438833  0.6438833  0.0000000  0.3415082
 5   0.5100271 -0.2922554 -0.2922554 -0.0000000  0.7543514
 occupations
 0.209 -0.008 -0.008  0.000  0.134
-0.008  0.264  0.106 -0.007 -0.012
-0.008  0.106  0.264  0.007 -0.012
 0.000 -0.007  0.007  0.163 -0.000
 0.134 -0.012 -0.012 -0.000  0.316
atom   16   Tr[ns(na)]=   5.0908354
atom   16   spin  1
eigenvalues:  0.5552493 0.5904633 0.7627611 0.9011807 0.9883113
 eigenvectors
 1  -0.0004805 -0.7073509 -0.7068617 -0.0004217 -0.0009222
 2   0.5423037 -0.0019376  0.0004753 -0.0016941  0.8401785
 3  -0.0015434  0.0022057 -0.0016084 -0.9999946 -0.0010142
 4   0.0014262  0.7068564 -0.7073496  0.0026935  0.0011152
 5  -0.8401798  0.0003497 -0.0004867  0.0007483  0.5423071
 occupations
 0.871  0.000 -0.000  0.000 -0.181
 0.000  0.728 -0.173  0.000  0.000
-0.000 -0.173  0.728 -0.000 -0.000
 0.000  0.000 -0.000  0.763  0.000
-0.181  0.000 -0.000  0.000  0.707
atom   16   spin  2
eigenvalues:  0.1294026 0.1671303 0.1703338 0.4064402 0.4195629
 eigenvectors
 1   0.8307515  0.0001422 -0.0000989 -0.0020683 -0.5566395
 2   0.0000155 -0.7051656  0.7045525 -0.0796705  0.0000139
 3  -0.0011186  0.0560866 -0.0565844 -0.9968184  0.0020589
 4  -0.0028256  0.7068122  0.7073832 -0.0003908 -0.0041607
 5   0.5566351  0.0035081  0.0036051  0.0010840  0.8307412
 occupations
 0.219  0.000  0.000  0.000  0.134
 0.000  0.287  0.120 -0.000  0.000
 0.000  0.120  0.287  0.000  0.000
 0.000 -0.000  0.000  0.170  0.000
 0.134  0.000  0.000  0.000  0.330
atom   17   Tr[ns(na)]=   5.0910699
atom   17   spin  1
eigenvalues:  0.5551150 0.5905885 0.7641463 0.9007882 0.9881574
 eigenvectors
 1  -0.0000000  0.7076768  0.7065363 -0.0000000 -0.0000000
 2   0.5421402  0.0000000  0.0000000  0.0002741  0.8402880
 3   0.0006179 -0.0000000  0.0000000  0.9999995 -0.0007249
 4   0.0000000  0.7065363 -0.7076768  0.0000000 -0.0000000
 5   0.8402878 -0.0000000 -0.0000000 -0.0009122 -0.5421398
 occupations
 0.871 -0.000 -0.000 -0.000 -0.181
-0.000  0.728 -0.173  0.000  0.000
-0.000 -0.173  0.728 -0.000  0.000
-0.000  0.000 -0.000  0.764  0.000
-0.181  0.000  0.000  0.000  0.707
atom   17   spin  2
eigenvalues:  0.1292903 0.1670923 0.1705048 0.4061542 0.4192331
 eigenvectors
 1  -0.8306165 -0.0000000 -0.0000000 -0.0001179  0.5568449
 2   0.0000000 -0.7072550  0.7069585  0.0000000 -0.0000000
 3  -0.0000752  0.0000000 -0.0000000  1.0000000  0.0000995
 4   0.0000000 -0.7069585 -0.7072550 -0.0000000  0.0000000
 5   0.5568449  0.0000000  0.0000000 -0.0000408  0.8306165
 occupations
 0.219 -0.000 -0.000 -0.000  0.134
-0.000  0.287  0.120  0.000  0.000
-0.000  0.120  0.287  0.000  0.000
-0.000  0.000  0.000  0.171 -0.000
 0.134  0.000  0.000 -0.000  0.329
atom   18   Tr[ns(na)]=   5.0908354
atom   18   spin  1
eigenvalues:  0.5552493 0.5904633 0.7627611 0.9011807 0.9883113
 eigenvectors
 1  -0.0004805  0.7073509  0.7068617 -0.0004217 -0.0009222
 2  -0.5423037 -0.0019376  0.0004753  0.0016941 -0.8401785
 3   0.0015434  0.0022057 -0.0016084  0.9999946  0.0010142
 4   0.0014262 -0.7068564  0.7073496  0.0026935  0.0011152
 5  -0.8401798 -0.0003497  0.0004867  0.0007483  0.5423071
 occupations
 0.871 -0.000  0.000  0.000 -0.181
-0.000  0.728 -0.173 -0.000 -0.000
 0.000 -0.173  0.728  0.000  0.000
 0.000 -0.000  0.000  0.763  0.000
-0.181 -0.000  0.000  0.000  0.707
atom   18   spin  2
eigenvalues:  0.1294026 0.1671303 0.1703338 0.4064402 0.4195629
 eigenvectors
 1   0.8307515 -0.0001422  0.0000989 -0.0020683 -0.5566395
 2   0.0000155  0.7051656 -0.7045525 -0.0796705  0.0000139
 3  -0.0011186 -0.0560866  0.0565844 -0.9968184  0.0020589
 4  -0.0028256 -0.7068122 -0.7073832 -0.0003908 -0.0041607
 5   0.5566351 -0.0035081 -0.0036051  0.0010840  0.8307412
 occupations
 0.219 -0.000 -0.000  0.000  0.134
-0.000  0.287  0.120  0.000 -0.000
-0.000  0.120  0.287 -0.000 -0.000
 0.000  0.000 -0.000  0.170  0.000
 0.134 -0.000 -0.000  0.000  0.330
atom   19   Tr[ns(na)]=   5.0908354
atom   19   spin  1
eigenvalues:  0.5552493 0.5904633 0.7627611 0.9011807 0.9883113
 eigenvectors
 1   0.0004805  0.7068617  0.7073509 -0.0004217  0.0009222
 2   0.5423037  0.0004753 -0.0019376  0.0016941  0.8401785
 3   0.0015434  0.0016084 -0.0022057 -0.9999946  0.0010142
 4   0.0014262 -0.7073496  0.7068564 -0.0026935  0.0011152
 5  -0.8401798 -0.0004867  0.0003497 -0.0007483  0.5423071
 occupations
 0.871 -0.000  0.000 -0.000 -0.181
-0.000  0.728 -0.173  0.000 -0.000
 0.000 -0.173  0.728 -0.000  0.000
-0.000  0.000 -0.000  0.763 -0.000
-0.181 -0.000  0.000 -0.000  0.707
atom   19   spin  2
eigenvalues:  0.1294026 0.1671303 0.1703338 0.4064402 0.4195629
 eigenvectors
 1  -0.8307515  0.0000989 -0.0001422 -0.0020683  0.5566395
 2  -0.0000155 -0.7045525  0.7051656 -0.0796705 -0.0000139
 3   0.0011186  0.0565844 -0.0560866 -0.9968184 -0.0020589
 4   0.0028256 -0.7073832 -0.7068122 -0.0003908  0.0041607
 5   0.5566351  0.0036051  0.0035081 -0.0010840  0.8307412
 occupations
 0.219  0.000  0.000 -0.000  0.134
 0.000  0.287  0.120 -0.000  0.000
 0.000  0.120  0.287  0.000  0.000
-0.000 -0.000  0.000  0.170 -0.000
 0.134  0.000  0.000 -0.000  0.330
atom   20   Tr[ns(na)]=   5.0910699
atom   20   spin  1
eigenvalues:  0.5551150 0.5905885 0.7641463 0.9007882 0.9881574
 eigenvectors
 1  -0.0000000  0.7065363  0.7076768 -0.0000000 -0.0000000
 2   0.5421402  0.0000000  0.0000000 -0.0002741  0.8402880
 3   0.0006179  0.0000000 -0.0000000 -0.9999995 -0.0007249
 4   0.0000000  0.7076768 -0.7065363  0.0000000 -0.0000000
 5  -0.8402878  0.0000000  0.0000000 -0.0009122  0.5421398
 occupations
 0.871 -0.000 -0.000  0.000 -0.181
-0.000  0.728 -0.173  0.000  0.000
-0.000 -0.173  0.728 -0.000  0.000
 0.000  0.000 -0.000  0.764 -0.000
-0.181  0.000  0.000 -0.000  0.707
atom   20   spin  2
eigenvalues:  0.1292903 0.1670923 0.1705048 0.4061542 0.4192331
 eigenvectors
 1   0.8306165  0.0000000  0.0000000 -0.0001179 -0.5568449
 2   0.0000000 -0.7069585  0.7072550  0.0000000 -0.0000000
 3  -0.0000752 -0.0000000  0.0000000 -1.0000000  0.0000995
 4   0.0000000 -0.7072550 -0.7069585 -0.0000000  0.0000000
 5   0.5568449  0.0000000  0.0000000  0.0000408  0.8306165
 occupations
 0.219 -0.000 -0.000  0.000  0.134
-0.000  0.287  0.120  0.000  0.000
-0.000  0.120  0.287  0.000  0.000
 0.000  0.000  0.000  0.171  0.000
 0.134  0.000  0.000  0.000  0.329
atom   21   Tr[ns(na)]=   5.0908354
atom   21   spin  1
eigenvalues:  0.5552493 0.5904633 0.7627611 0.9011807 0.9883113
 eigenvectors
 1   0.0004805 -0.7068617 -0.7073509 -0.0004217  0.0009222
 2  -0.5423037  0.0004753 -0.0019376 -0.0016941 -0.8401785
 3  -0.0015434  0.0016084 -0.0022057  0.9999946 -0.0010142
 4   0.0014262  0.7073496 -0.7068564 -0.0026935  0.0011152
 5  -0.8401798  0.0004867 -0.0003497 -0.0007483  0.5423071
 occupations
 0.871  0.000 -0.000 -0.000 -0.181
 0.000  0.728 -0.173 -0.000  0.000
-0.000 -0.173  0.728  0.000 -0.000
-0.000 -0.000  0.000  0.763 -0.000
-0.181  0.000 -0.000 -0.000  0.707
atom   21   spin  2
eigenvalues:  0.1294026 0.1671303 0.1703338 0.4064402 0.4195629
 eigenvectors
 1  -0.8307515 -0.0000989  0.0001422 -0.0020683  0.5566395
 2  -0.0000155  0.7045525 -0.7051656 -0.0796705 -0.0000139
 3   0.0011186 -0.0565844  0.0560866 -0.9968184 -0.0020589
 4   0.0028256  0.7073832  0.7068122 -0.0003908  0.0041607
 5   0.5566351 -0.0036051 -0.0035081 -0.0010840  0.8307412
 occupations
 0.219 -0.000 -0.000 -0.000  0.134
-0.000  0.287  0.120  0.000 -0.000
-0.000  0.120  0.287 -0.000 -0.000
-0.000  0.000 -0.000  0.170 -0.000
 0.134 -0.000 -0.000 -0.000  0.330
atom   22   Tr[ns(na)]=   5.0932985
atom   22   spin  1
eigenvalues:  0.5542884 0.5913277 0.7697482 0.8945645 0.9878214
 eigenvectors
 1  -0.0094692 -0.7068768 -0.7068768  0.0000000 -0.0236790
 2   0.5378982 -0.0177162 -0.0177162  0.0000000  0.8426374
 3   0.0000000 -0.0319153  0.0319153 -0.9989809 -0.0000000
 4   0.0000000  0.7063862 -0.7063862 -0.0451351 -0.0000000
 5   0.8429566  0.0033643  0.0033643  0.0000000 -0.5379605
 occupations
 0.873  0.001  0.001  0.000 -0.180
 0.001  0.724 -0.170 -0.004 -0.001
 0.001 -0.170  0.724  0.004 -0.001
 0.000 -0.004  0.004  0.770 -0.000
-0.180 -0.001 -0.001 -0.000  0.706
atom   22   spin  2
eigenvalues:  0.1290323 0.1679892 0.1715773 0.4065393 0.4204103
 eigenvectors
 1   0.8310149  0.0012219  0.0012219 -0.0000000 -0.5562474
 2  -0.0000000  0.7056623 -0.7056623 -0.0638861  0.0000000
 3   0.0000000  0.0451743 -0.0451743  0.9979572 -0.0000000
 4  -0.0013035 -0.7070972 -0.7070972 -0.0000000 -0.0050538
 5  -0.5562486  0.0034824  0.0034824  0.0000000 -0.8310014
 occupations
 0.219 -0.000 -0.000  0.000  0.135
-0.000  0.287  0.119  0.000  0.000
-0.000  0.119  0.287 -0.000  0.000
 0.000  0.000 -0.000  0.172 -0.000
 0.135  0.000  0.000 -0.000  0.330
atom   23   Tr[ns(na)]=   5.0906806
atom   23   spin  1
eigenvalues:  0.5536275 0.5888585 0.7695922 0.9018206 0.9878230
 eigenvectors
 1   0.0000000 -0.7071068 -0.7071068  0.0000000  0.0000000
 2   0.5414569  0.0000000  0.0000000  0.0000000  0.8407285
 3   0.0000000  0.0000000 -0.0000000 -1.0000000 -0.0000000
 4   0.0000000  0.7071068 -0.7071068  0.0000000 -0.0000000
 5  -0.8407285  0.0000000  0.0000000 -0.0000000  0.5414569
 occupations
 0.871 -0.000 -0.000  0.000 -0.182
-0.000  0.728 -0.174  0.000  0.000
-0.000 -0.174  0.728 -0.000  0.000
 0.000  0.000 -0.000  0.770 -0.000
-0.182  0.000  0.000 -0.000  0.706
atom   23   spin  2
eigenvalues:  0.1288419 0.1665383 0.1699537 0.4052739 0.4183510
 eigenvectors
 1  -0.8303942 -0.0000000 -0.0000000  0.0000000  0.5571764
 2  -0.0000000  0.7071068 -0.7071068 -0.0000000  0.0000000
 3   0.0000000  0.0000000 -0.0000000  1.0000000 -0.0000000
 4   0.0000000 -0.7071068 -0.7071068 -0.0000000  0.0000000
 5   0.5571764  0.0000000  0.0000000 -0.0000000  0.8303942
 occupations
 0.219 -0.000 -0.000  0.000  0.134
-0.000  0.286  0.119  0.000  0.000
-0.000  0.119  0.286  0.000  0.000
 0.000  0.000  0.000  0.170 -0.000
 0.134  0.000  0.000 -0.000  0.328
atom   24   Tr[ns(na)]=   5.0932985
atom   24   spin  1
eigenvalues:  0.5542884 0.5913277 0.7697482 0.8945645 0.9878214
 eigenvectors
 1  -0.0094692  0.7068768  0.7068768 -0.0000000 -0.0236790
 2   0.5378982  0.0177162  0.0177162  0.0000000  0.8426374
 3  -0.0000000 -0.0319153  0.0319153  0.9989809  0.0000000
 4   0.0000000 -0.7063862  0.7063862 -0.0451351 -0.0000000
 5  -0.8429566  0.0033643  0.0033643 -0.0000000  0.5379605
 occupations
 0.873 -0.001 -0.001  0.000 -0.180
-0.001  0.724 -0.170  0.004  0.001
-0.001 -0.170  0.724 -0.004  0.001
 0.000  0.004 -0.004  0.770 -0.000
-0.180  0.001  0.001 -0.000  0.706
atom   24   spin  2
eigenvalues:  0.1290323 0.1679892 0.1715773 0.4065393 0.4204103
 eigenvectors
 1   0.8310149 -0.0012219 -0.0012219 -0.0000000 -0.5562474
 2   0.0000000  0.7056623 -0.7056623  0.0638861  0.0000000
 3   0.0000000 -0.0451743  0.0451743  0.9979572 -0.0000000
 4   0.0013035 -0.7070972 -0.7070972 -0.0000000  0.0050538
 5  -0.5562486 -0.0034824 -0.0034824  0.0000000 -0.8310014
 occupations
 0.219  0.000  0.000  0.000  0.135
 0.000  0.287  0.119 -0.000 -0.000
 0.000  0.119  0.287  0.000 -0.000
 0.000 -0.000  0.000  0.172 -0.000
 0.135 -0.000 -0.000 -0.000  0.330
nsum = 122.0668928
 exit write_ns
 Atomic wfc used for LDA+U Projector are NOT orthogonalized
     Starting wfc are  432 atomic +  690 random wfc

     total cpu time spent up to now is      3.65 secs

     per-process dynamical memory:    76.3 Mb

     Band Structure Calculation
     Davidson diagonalization with overlap
     c_bands:  1 eigenvalues not converged

     ethr =  1.60E-12,  avg # of iterations = 88.5

     total cpu time spent up to now is   1311.62 secs

     End of band structure calculation

 ------ SPIN UP ------------


          k = 0.0000 0.0000 0.0000     band energies (ev):

   -62.8431 -62.8342 -62.7513 -62.7499 -62.7428 -62.7421 -62.7378 -62.7364
   -62.7345 -62.7330 -62.7314 -62.7288 -62.7268 -62.7257 -62.7253 -62.7240
   -62.7238 -62.7230 -62.7216 -62.7190 -62.7182 -62.7181 -62.7118 -62.6979
   -34.2746 -34.2314 -34.2045 -34.1856 -34.1778 -34.1727 -34.1494 -34.1453
   -34.1436 -34.1410 -34.1410 -34.1410 -34.1390 -34.1346 -34.1332 -34.1314
   -34.1311 -34.1275 -34.1268 -34.1266 -34.1259 -34.1258 -34.1257 -34.1249
   -34.1219 -34.1213 -34.1160 -34.1013 -34.0793 -34.0708 -34.0683 -34.0676
   -34.0652 -34.0633 -34.0614 -34.0599 -34.0556 -34.0555 -34.0550 -34.0542
   -34.0539 -34.0527 -34.0522 -34.0513 -34.0513 -34.0500 -34.0497 -34.0477
   -34.0464 -34.0463 -34.0454 -34.0451 -34.0447 -34.0444 -34.0431 -34.0425
   -34.0396 -34.0395 -34.0389 -34.0383 -34.0359 -34.0349 -34.0190 -34.0125
   -33.9908 -33.9371 -33.9327 -33.9313 -33.9311 -33.9280 -33.9278 -33.9230
   -11.7284  -8.8379  -8.0478  -8.0266  -8.0226  -8.0143  -8.0089  -7.9958
    -7.9843  -7.8717  -7.4970  -7.4952  -7.4840  -7.4786  -7.4751  -7.4735
    -7.4734  -7.4239  -7.3898  -7.3864  -7.3791  -7.3038  -7.2258  -7.0881
    -7.0843  -7.0754  -7.0680  -7.0628  -7.0289  -7.0020  -6.9963  -6.9907
    -6.9886  -6.9845  -6.9803  -6.9791  -6.9466  -6.9123  -6.9089  -6.9059
    -6.9030  -6.9008  -6.8814  -6.8800  -6.8730  -6.8664  -6.7127  -6.6969
     1.5748   2.2248   2.5932   2.7450   2.9892   3.1123   3.4174   3.5752
     3.5786   3.6017   3.6892   3.7510   3.8374   3.8511   3.8549   3.8555
     3.8590   3.8617   3.8999   3.9172   3.9286   3.9367   3.9393   3.9960
     4.0748   4.1034   4.1087   4.2908   4.3014   4.4254   4.4794   4.5525
     4.7290   4.7467   4.7926   4.7946   4.9271   4.9348   4.9370   4.9404
     4.9414   4.9463   5.0016   5.0545   5.2166   5.2282   5.2565   5.2917
     5.3162   5.3449   5.4249   5.4586   5.5465   5.5521   5.5535   5.5565
     5.5789   5.5793   5.5823   5.5879   5.5911   5.5919   5.6129   5.6216
     5.6651   5.6692   5.6761   5.6772   5.6816   5.7911   5.8025   5.9398
     5.9429   6.1057   6.1064   6.1280   6.3115   6.4207   6.4365   6.4399
     6.4864   6.4872   6.4911   6.5303   6.5538   6.6723   6.7464   6.7484
     6.9043   6.9373   6.9561   6.9575   6.9679   6.9709   6.9740   6.9754
     6.9756   6.9776   6.9950   7.0276   7.0687   7.0995   7.1258   7.1273
     7.1280   7.1294   7.1395   7.1407   7.1490   7.1796   7.1844   7.2058
     7.2369   7.4662   7.6675   7.7713   7.8581   7.8644   7.8692   7.9534
     8.0312   8.0342   8.0401   8.0414   8.0599   8.0740   8.0748   8.0787
     8.0852   8.0873   8.0957   8.3284   8.3682   8.3905   8.3907   8.4367
     8.4373   8.4624   8.4658   8.5238   8.6470   8.6562   8.7264   8.7574
     8.8635   8.8663   8.8709   8.8832   8.8838   8.9039   8.9053   8.9089
     8.9185   8.9485   8.9532   8.9945   9.1820   9.2336   9.3076   9.3835
     9.3904   9.4318   9.4347   9.4386   9.4395   9.4479   9.4735   9.5031
     9.5143   9.5324   9.6350   9.6822   9.6967   9.7200   9.7238   9.7353
     9.7388   9.7438   9.7934   9.8255   9.8323   9.8458   9.8755   9.8758
     9.9269   9.9977  10.0097  10.0132  10.0238  10.0264  10.3632  10.5335
    10.6769  10.6936  10.7180  10.7297  10.7356  10.7357  10.7422  10.8618
    10.9230  10.9377  10.9474  10.9939  11.0096  11.0788  11.1288  11.1449
    11.1526  11.1529  11.1535  11.1608  11.1692  11.4477  11.4770  11.6001
    11.6588  12.3039  12.3123  12.4009  12.4133  12.4145  12.4151  12.4182
    12.4225  12.6603  12.6640  13.1895  13.3518  13.3967  13.4466  13.5496
    13.5567  13.5929  13.5942  13.6192  13.6310  13.7143  13.7247  13.7982
    13.7989  13.9165  13.9368  14.0024  14.0129  14.0493  14.0654  14.0719
    14.0907  14.0968  14.1002  14.2958  14.3787  14.3950  14.4055  14.6469
    14.7838  14.8253  14.8261  14.8334  14.8368  14.8370  14.8381  15.4539
    18.2770  20.5178  20.6680  20.7218  20.7676  21.0175  21.0528  21.5322
    21.5694  21.9318  22.0197  22.2889  22.2973  22.3437  22.4093  22.4402
    22.4685  22.5016  22.5087  22.5360  22.5371  22.5386  22.5427  23.0899
    23.1494  23.3006  23.3026  23.3262  23.3387  24.0730  24.1203  24.1722
    24.1915  24.3021  24.4943  24.5432  24.5682  24.5838  24.6012  24.6388
    25.1546  25.1911  25.3354  25.3636  25.3638  25.3773  25.3847  25.4006
    25.4096  25.4103  25.5072  25.6025  25.6594  25.6623  25.6667  25.7173
    25.7257  25.8735  25.8860  25.8921  25.9167  25.9396  25.9427  25.9478
    25.9545  26.0266  26.2122  26.2382  26.2752  26.3008  26.5606  26.7601
    26.8495  26.9025  26.9192  26.9209  26.9235  26.9325  26.9339  26.9376
    26.9403  26.9499  26.9752  26.9808  27.1647  27.1658  27.5320  27.7007
    27.8725  27.9295  27.9692  27.9845  28.0218  28.0473  28.0479  28.0654
    28.0695  28.0752  28.0770  28.0777  28.1843  28.2351  28.2554  28.2764
    28.2786  28.2806  28.2867  28.2939  28.4329  28.4572  28.4748  28.4893
    28.4999  28.6789  28.6810  28.7170  28.7264  28.7316  28.7433  28.7544
    28.7550  29.7526  29.7822  29.8229  29.9389  29.9496  29.9836  29.9930
    30.0006  30.0117  30.0208  30.1149  30.1182  30.1461  30.1575  31.4701
    31.4880  31.9154  31.9922  32.0386  32.0428  32.0574  32.1078  32.1644
    32.1677  32.1911  32.1952  32.2415  32.3060  32.4885  32.5425  32.5694
    32.5827  32.6555  32.6743  33.1716  33.2085  33.2187  33.2187  33.2320
    33.2354  33.2414  33.2486  33.7741  34.1553  34.1562  34.1572  34.1803
    34.2655  34.2971  34.2988  34.3127  34.4486  34.5487  34.5695  34.5711
    35.0318  35.3758  35.3770  35.3805  35.4114  36.1660  36.1733  36.2715
    36.2986  36.3151  36.3208  36.5080  36.5919  36.5961  36.6008  36.6343
    36.6616  36.6684  36.6803  36.8702  37.0813  37.0844  37.1774  37.1956
    37.2935  37.2993  37.3219  37.3285  37.3351  37.3389  37.3451  37.3734
    37.3823  37.5493  37.5521  37.5616  37.5763  37.5822  37.5908  37.5944
    37.6089  37.7880  37.7969  38.1102  38.1192  38.1354  38.1456  38.1549
    38.1706  38.2406  38.2762  38.2880  38.2935  38.3674  38.3992  38.4094
    38.4115  38.4153  38.4169  38.4250  38.4301  38.4342  38.4432  39.2032
    39.3923  39.4156  40.0651  40.2607  40.2627  40.2992  40.2996  40.3027
    40.3044  40.3052  40.3091  40.3173  40.3244  40.3315  40.4002  40.5083
    40.5260  40.5337  40.5491  40.6250  40.6387  40.6670  40.6840  40.6861
    40.6902  40.7032  40.7047  40.8255  40.8288  40.8307  40.8530  41.3169
    41.3357  41.3421  41.7771  41.7828  41.8054  41.8327  42.6541  42.6595
    42.6717  42.6773  43.1741  43.1881  43.4721  43.5997  43.6105  43.6141
    43.7181  43.7732  43.7830  43.9004  43.9111  43.9358  43.9416  44.0155
    44.0438  44.0531  44.0544  44.2849  44.3194  44.3440  44.3549  44.6010
    44.6026  44.7377  44.7408  44.7634  44.7887  44.7890  44.7937  44.8074
    44.8126  44.8214  44.8215  44.8670  44.8878  44.8923  44.9196  44.9369
    44.9434  45.6140  45.6378  45.7436  46.5212  46.5300  46.5791  46.6315
    46.6639  46.6642  46.7346  46.7414  46.7535  46.7598  46.7648  46.7679
    46.9056  46.9132  46.9293  46.9353  46.9531  46.9549  47.2911  47.3078
    47.3284  47.3393  47.3413  47.3556  47.3658  47.3713  47.5213  47.5836
    47.6140  47.6159  47.6275  47.6423  47.6857  47.7059  47.7149  47.7172
    47.9036  48.2300  48.2384  48.3883  48.4757  48.4879  48.5024  48.5662
    48.5762  48.6223  48.6296  48.7220  48.7295  48.7376  48.7867  48.8024
    48.8081  48.8096  48.8098  48.8129  48.8499  48.8558  48.8709  49.0251
    49.4137  49.4737  49.4881  49.5035  49.5710  49.5823  49.5874  49.6086
    49.6348  49.6356  49.9673  49.9920  49.9962  50.0235  50.3289  50.3387
    50.3545  50.3665  50.4917  50.6298  50.6471  50.6565  50.6917  50.6980
    50.6985  50.7062  50.7165  50.7612  50.7833  50.7896  50.8483  50.8591
    50.8709  50.8801  50.8801  50.8955  50.8976  50.9092  50.9093  50.9127
    50.9660  51.0507  51.0623  51.1074  51.1134  51.1207  51.1330  51.1406
    51.1407  51.1917  51.2068  51.5059  51.5319  51.5486  51.5635  51.6246
    51.6574  51.8195  51.9141  51.9205  51.9216  51.9310  51.9483  51.9487
    51.9536  52.1415  52.1596  52.2028  52.2091  52.2266  52.2773  52.2974
    52.3005  52.3107  52.7473  52.7997  52.8378  52.8689  52.8798  52.9439
    52.9505  52.9580  52.9616  53.0200  53.0262  53.0545  53.0676  53.4788
    53.4953  53.5251  53.5316  53.5452  53.5545  53.5566  53.5613  53.5619
    53.5687  53.5793  53.5897  53.6273  53.6537  53.6560  53.6585  53.7755
    53.8549  54.1010  54.1409  54.1948  54.6422  54.6430  54.6704  54.6714
    54.6839  54.6842  54.6920  54.7024  54.7110  54.7165  54.7558  54.7575
    54.7595  54.8030  54.9931  55.0016  55.0155  55.0472  55.0579  55.0585
    55.0733  55.0773  55.0794  55.0798  55.8028  55.8108  55.8191  55.8225
    55.8747  55.9042  55.9045  55.9220  55.9227  55.9299  55.9335  55.9457
    55.9510  55.9512  55.9563  56.2087  56.2160  56.4283  56.4941  56.5377
    56.5703  56.5850  56.6188  56.8001  56.8291  56.8395  56.8583  56.9798
    57.0913  57.0946  57.0952  57.0964  57.1005  57.5233  57.5354  57.5640
    57.5893  57.5915  57.6016  57.6047  57.6055  57.6752  57.6891  57.6928
    57.7007  57.8939  58.0033  58.1341  58.1341  58.1425  58.4606  58.4715
    58.5138  58.5291  58.5344  58.5504  58.5539  58.5548  58.7306  58.7887
    58.7959  58.8015  59.2313  59.3234  59.6020  59.6626  59.6688  59.6830
    59.6870  59.6958  59.6961  59.7037  59.7049  59.7320  59.7509  59.7791
    59.7820  60.1967  60.2172  60.2654  60.2741  60.2794  60.2813  60.2897
    60.2926  60.3739  60.4160  60.4383  60.4450  60.8263  60.9047  60.9188
    60.9319  60.9460  60.9512  60.9533  60.9603  60.9827  60.9910  60.9919
    61.0050  61.1353  61.1401  61.2418  61.2619  61.3267  61.3789  61.3901
    61.3962  61.5700  61.5728  61.7458  61.7827  62.3515  62.3796  62.3797
    62.3931  62.4108  62.4369  62.4450  62.4510  62.4950  62.5147  62.5236
    62.5331  62.5335  62.5346  62.5423  62.5475  62.8582  62.8807  63.4759
    63.4889  63.5760  63.6524  63.6610  63.6921  63.7056  63.9144  63.9202
    64.0361  64.2130  64.2132  64.2258  64.2342  64.2406  64.2435  64.2462
    64.2941  64.3096  64.3257  64.3471  64.3519  64.3535  64.3721  64.4737
    64.4973  64.5982  64.6146  64.6352  64.6403  64.6563  64.6568  64.7521
    64.7765  64.7901  64.7959  64.7963  64.8289  64.8772  64.8944  64.9152
    64.9162  64.9211  64.9246  64.9358  64.9440  64.9453  64.9559  64.9561
    64.9643  65.2737  65.2738  65.3116  65.3230  66.0345  66.0859  66.0875
    66.0907  66.2010  66.2010  66.2088  66.2319  66.2373  66.2444  66.3464
    66.3556  66.6178

 ------ SPIN DOWN ----------


          k = 0.0000 0.0000 0.0000     band energies (ev):

   -59.8815 -59.8755 -59.8749 -59.8683 -59.8628 -59.8622 -59.8610 -59.8577
   -59.8558 -59.8530 -59.8527 -59.8504 -59.8495 -59.8494 -59.8490 -59.8487
   -59.8461 -59.8444 -59.8441 -59.8401 -59.8279 -59.8220 -59.8153 -59.6609
   -31.4546 -31.4491 -31.4461 -31.4418 -31.4398 -31.4387 -31.4361 -31.4338
   -31.4315 -31.4261 -31.4250 -31.4250 -31.4239 -31.4238 -31.4222 -31.4219
   -31.4195 -31.4183 -31.4183 -31.4117 -31.3854 -31.3096 -31.3004 -31.2748
   -31.2091 -31.2043 -31.1995 -31.1981 -31.1928 -31.1919 -31.1872 -31.1845
   -31.1838 -31.1811 -31.1802 -31.1792 -31.1748 -31.1719 -31.1713 -31.1684
   -31.1675 -31.1652 -31.1630 -31.1620 -31.1618 -31.1598 -31.1344 -31.1140
   -31.0891 -31.0697 -31.0426 -31.0401 -31.0375 -31.0375 -31.0354 -31.0352
   -31.0347 -31.0335 -31.0328 -31.0328 -31.0317 -31.0261 -30.9888 -30.9551
   -30.9072 -30.9045 -30.8975 -30.8955 -30.8946 -30.8919 -30.8874 -30.8512
   -11.6016  -9.1620  -8.3648  -8.3457  -8.3374  -8.3364  -8.3338  -8.2603
    -8.1990  -8.1505  -7.8305  -7.8220  -7.8077  -7.8050  -7.8033  -7.7965
    -7.7958  -7.7437  -7.7098  -7.6964  -7.6952  -7.6168  -7.4500  -7.4041
    -7.4007  -7.3910  -7.3886  -7.3717  -7.3584  -7.3420  -7.3346  -7.3322
    -7.3301  -7.3222  -7.3215  -7.3146  -7.3105  -7.3088  -7.2775  -7.2620
    -7.2508  -7.2502  -7.2376  -7.2148  -7.2140  -7.2030  -7.1619  -7.1433
     2.1868   2.7597   3.6251   3.9057   4.2827   4.3361   4.5950   4.5989
     4.6301   4.6469   4.7137   4.7624   4.7975   4.8610   4.8655   4.8864
     4.9327   4.9532   4.9904   5.0027   5.0121   5.0930   5.1326   5.1717
     5.2630   5.2833   5.2877   5.2903   5.2906   5.3161   5.3498   5.3880
     5.3966   5.4118   5.4188   5.4213   5.4268   5.5492   5.5690   5.6849
     5.7159   5.7492   5.8457   5.8644   5.8723   5.9060   6.0404   6.0456
     6.0501   6.0518   6.0547   6.0584   6.0616   6.0641   6.1104   6.1278
     6.1751   6.1784   6.1832   6.1866   6.1867   6.1937   6.2944   6.3863
     6.4674   6.4704   6.4763   6.5205   6.5347   6.5420   6.5435   6.5718
     6.5950   6.5950   6.6204   6.6209   6.6368   6.6540   6.6595   6.6658
     6.6688   6.6700   6.6703   6.6778   6.6809   6.7459   6.7473   7.1759
     7.2114   7.2203   7.3838   7.3929   7.4231   7.4766   7.5407   7.6033
     7.6083   7.7125   7.7620   7.7921   7.9121   7.9545   7.9603   7.9641
     7.9642   7.9653   7.9747   7.9950   7.9962   7.9988   8.0145   8.0628
     8.0629   8.0677   8.0878   8.1371   8.1601   8.1707   8.1709   8.1765
     8.3382   8.3599   8.4312   8.4703   8.5076   8.5426   8.5913   8.5918
     8.5961   8.5997   8.6087   8.6168   8.6349   8.6381   8.6399   8.6457
     8.7938   8.8149   8.8199   8.8368   8.9625   9.1686   9.1925   9.5690
    13.2699  13.2793  13.3394  13.4331  13.4378  13.4404  13.4424  13.4446
    13.4461  13.4530  13.4569  13.4583  13.4806  13.5356  13.5698  13.6517
    13.6520  13.6741  13.6753  13.8448  13.8768  13.8879  13.8891  13.8895
    13.8935  13.8936  13.8997  13.9126  13.9306  14.0579  14.0715  14.0780
    14.0844  14.2465  14.2715  14.2729  14.2742  14.2774  14.2855  14.2864
    14.2929  14.2976  14.2991  14.3037  14.3137  14.3170  14.3258  14.3304
    14.3330  14.3776  14.4573  14.4600  14.4625  14.4752  14.4807  14.4819
    14.4836  14.4967  14.5010  14.5198  14.5253  14.5480  14.5530  14.5827
    14.6055  14.6121  14.6383  14.6433  14.6456  14.6503  14.6506  14.6701
    14.7993  14.8038  14.8195  14.8298  14.8335  14.8342  14.8384  14.8552
    15.1498  15.3371  15.3598  15.4121  15.4790  15.5448  15.5553  15.5731
    15.5774  15.5982  15.6199  15.6277  15.7181  15.7239  15.7488  15.7548
    15.8078  15.8426  15.8756  15.8867  15.8971  15.9135  15.9376  15.9473
    15.9513  15.9666  15.9690  16.1769  16.2679  16.2705  16.2904  16.3949
    16.4835  16.5044  16.5080  16.5108  16.5119  16.5123  16.5255  17.4657
    18.5389  20.7053  20.8136  20.8678  20.9049  21.1215  21.1483  21.8732
    21.9174  22.0520  22.0692  22.3270  22.3531  22.3669  22.4100  22.4739
    22.4976  22.5251  22.5449  22.5765  22.5780  22.5784  22.5850  23.6811
    23.7337  23.9048  23.9092  23.9348  23.9465  24.6066  24.6865  24.8063
    24.8259  24.8315  24.8417  24.9848  25.0556  25.0678  25.1022  25.2966
    25.4686  25.5264  25.5917  25.6088  25.6132  25.6258  25.6376  25.6486
    25.6546  25.6560  25.6596  25.6651  25.6655  25.7886  25.7927  25.8230
    25.8262  26.3977  26.4340  26.4437  26.4457  26.4928  26.5053  26.5123
    26.5149  26.5211  26.5230  26.5283  26.5344  26.6809  26.9760  27.0442
    27.0768  27.1700  27.1905  27.2120  27.2198  27.2248  27.2266  27.2399
    27.5840  27.6609  27.6790  27.6845  27.9870  28.0092  28.3366  28.5285
    28.6748  28.7035  28.8138  28.9155  28.9508  28.9794  28.9896  28.9901
    28.9935  28.9953  29.0023  29.0048  29.0086  29.0219  29.0341  29.0357
    29.0418  29.0575  29.0578  29.0594  29.0717  29.0727  29.0752  29.0791
    29.1024  29.5266  29.5352  29.5702  29.5747  29.5752  29.5920  29.5970
    29.6025  29.9404  30.4064  30.4411  30.6951  30.7025  30.7151  30.7287
    30.7669  30.7773  30.7912  30.7958  30.8901  31.1303  31.1494  32.0270
    32.0311  32.0402  32.0677  32.1002  32.1037  32.7072  32.7536  32.7835
    32.8168  33.0910  33.1580  33.2148  33.2155  33.2370  33.2394  33.3764
    33.4401  33.4527  33.4635  33.9924  34.0127  34.0165  34.0177  34.0274
    34.0328  34.0354  34.0419  34.0436  34.8114  34.8338  34.8401  34.8479
    34.9717  34.9768  34.9772  34.9958  35.0751  35.1777  35.1924  35.1973
    35.8058  35.8067  35.9226  35.9725  36.0056  36.7507  36.8103  36.8190
    36.8454  36.8715  36.8741  36.9526  36.9818  36.9980  37.0013  37.1392
    37.1715  37.1769  37.1810  37.2845  37.5042  37.5358  37.6346  37.6442
    37.6523  37.6601  37.6668  37.6698  37.7485  37.7591  37.8551  37.8622
    37.8742  37.8762  37.8801  37.8839  37.8888  37.9034  37.9044  37.9081
    37.9134  37.9571  37.9625  38.6733  38.6841  38.7644  38.7667  38.7848
    38.8030  38.8104  38.8127  38.9216  38.9246  38.9368  38.9420  38.9474
    38.9479  38.9526  38.9562  38.9608  38.9630  38.9647  38.9759  39.7942
    40.0523  40.0770  40.1802  40.3390  40.3626  40.3707  40.6335  40.6539
    40.6671  40.6868  40.6878  40.6909  40.6964  40.6987  41.1748  41.1903
    41.1999  41.2104  41.2146  41.2320  41.2323  41.2348  41.2360  41.2395
    41.2416  41.2435  41.2503  41.2507  41.2548  41.2583  41.5227  41.7036
    41.7069  42.0993  42.2322  42.2614  42.6188  42.6221  43.1864  43.1865
    43.1930  43.1944  43.5329  43.5468  43.7963  43.8581  43.9377  44.0364
    44.0662  44.0761  44.0835  44.2445  44.2467  44.2759  44.2994  44.3092
    44.3124  44.3200  44.3227  44.5523  44.5868  44.6088  44.6172  44.6639
    44.6693  45.1153  45.1215  45.2843  45.2964  45.3461  45.3632  45.3787
    45.3885  45.4009  45.4024  45.4085  45.4149  45.5062  45.5137  45.5489
    45.5552  46.2290  46.2530  46.3032  46.8933  46.9388  47.0397  47.0504
    47.0590  47.0595  47.0700  47.0730  47.2075  47.2168  47.2251  47.2321
    47.2470  47.2523  47.2608  47.2638  47.3682  47.3690  47.9296  47.9363
    47.9389  47.9414  47.9417  48.0223  48.0240  48.0390  48.0438  48.0469
    48.0577  48.0615  48.0635  48.0674  48.1185  48.3008  48.3333  48.3541
    48.3644  48.5161  48.5543  48.5602  48.5702  48.9096  48.9616  48.9713
    48.9984  49.0054  49.0165  49.0186  49.0231  49.0245  49.0757  49.1564
    49.1767  49.1951  49.2028  49.2962  49.3231  49.3908  49.3921  49.3927
    49.7941  49.8615  49.8992  49.9035  49.9234  49.9360  50.0023  50.0074
    50.1015  50.1040  50.3101  50.3449  50.3496  50.3689  50.7936  50.7980
    50.8115  50.8239  50.8345  50.9259  50.9760  50.9847  50.9876  50.9948
    50.9974  50.9994  51.0451  51.1010  51.1489  51.1565  51.1617  51.1667
    51.1719  51.1738  51.1767  51.1844  51.1883  51.1939  51.2201  51.2441
    51.2546  51.2569  51.3719  51.4175  51.4194  51.4316  51.5097  51.5227
    51.5243  51.5328  51.5421  51.5470  51.5862  51.5957  51.6129  52.1008
    52.2110  52.2174  52.2234  52.2342  52.2476  52.2484  52.2491  52.2929
    52.4253  52.4365  52.6247  52.6474  52.6494  52.6579  52.6595  52.6805
    52.6808  52.6933  52.9706  53.0707  53.0884  53.1161  53.1260  53.1431
    53.1459  53.1575  53.3781  53.4047  53.4312  53.4450  53.4947  53.5137
    53.6799  53.9453  53.9670  53.9946  54.0079  54.0079  54.0180  54.0920
    54.0928  54.1275  54.1346  54.1465  54.1514  54.1544  54.1556  54.1649
    54.1741  54.2056  54.4083  54.4229  54.8534  54.9089  55.0449  55.0490
    55.0503  55.0611  55.2028  55.2132  55.2165  55.2284  55.2557  55.2671
    55.3411  55.3624  55.5358  55.5704  55.5711  55.6055  55.6061  55.6089
    55.6180  55.6204  55.6220  55.6229  55.7570  56.3881  56.4212  56.4251
    56.4312  56.4319  56.4552  56.4572  56.4628  56.4645  56.4807  56.4818
    56.4824  56.5289  56.5912  56.6218  56.6298  56.7306  56.8230  56.8380
    56.8660  57.0526  57.0645  57.1969  57.2014  57.2056  57.2320  57.2361
    57.2488  57.2593  57.4832  57.4835  57.6702  57.6864  57.7064  57.7290
    57.7315  57.7348  57.7373  57.7379  57.8692  58.2763  58.2855  58.2998
    58.3085  58.5317  58.5858  58.7138  58.7166  58.7224  58.9863  58.9866
    59.0387  59.0429  59.0481  59.0570  59.0623  59.0644  59.2639  59.3037
    59.3134  59.3192  59.4114  59.4871  59.8409  59.8536  59.8615  59.8660
    59.8740  59.8753  59.8770  59.8779  60.3920  60.4047  60.4319  60.4581
    60.4619  60.4921  60.5474  60.5802  60.5818  60.8792  60.9030  60.9182
    60.9219  60.9242  60.9328  60.9364  60.9422  61.3682  61.4326  61.4583
    61.4634  61.4749  61.4769  61.4782  61.4901  61.4906  61.4912  61.4962
    61.4978  61.6074  61.6255  61.7543  61.8004  61.8106  61.8186  61.8268
    61.8305  62.0771  62.0828  62.4518  62.4828  62.8807  62.9252  62.9338
    62.9528  62.9546  62.9562  62.9593  62.9611  62.9625  62.9647  63.0561
    63.0790  63.0817  63.0932  63.1549  63.1559  63.1636  63.1681  63.4783
    63.4938  63.6104  64.0105  64.0318  64.0397  64.0698  64.3897  64.3976
    64.4634  64.4657  64.4851  64.6428  64.6503  64.6638  64.6652  64.6676
    64.6706  64.6730  64.8068  64.9219  64.9336  64.9586  64.9646  64.9764
    64.9798  65.0402  65.0570  65.1773  65.1987  65.2237  65.2273  65.4824
    65.4854  65.4897  65.5134  65.5138  65.5327  65.5337  65.5396  65.5398
    65.5480  65.5621  65.5860  65.6005  65.6065  65.7158  65.7226  65.7417
    65.7472  65.7550  65.7601  65.7637  65.7668  66.2909  66.3200  66.3243
    66.3271  66.7288  66.7426  66.7451  66.7496  66.7534  66.7603  67.0701
    67.0756  67.0788

     the Fermi energy is    10.5945 ev

     Writing output data file cro2.O25-FCH.save
 
     init_run     :      2.42s CPU      3.35s WALL (       1 calls)
     electrons    :   1304.49s CPU   1307.97s WALL (       1 calls)

     Called by init_run:
     wfcinit      :      0.17s CPU      0.19s WALL (       1 calls)
     potinit      :      0.21s CPU      0.56s WALL (       1 calls)

     Called by electrons:
     c_bands      :   1304.48s CPU   1307.96s WALL (       1 calls)
     v_of_rho     :      0.07s CPU      0.08s WALL (       1 calls)
     newd         :      0.64s CPU      0.65s WALL (       1 calls)

     Called by c_bands:
     init_us_2    :      0.00s CPU      0.00s WALL (       4 calls)
     cegterg      :   1297.40s CPU   1300.77s WALL (       9 calls)

     Called by *egterg:
     h_psi        :     83.83s CPU     84.15s WALL (     188 calls)
     s_psi        :      2.80s CPU      2.81s WALL (     190 calls)
     g_psi        :      0.05s CPU      0.05s WALL (     177 calls)
     cdiaghg      :   1108.55s CPU   1111.36s WALL (     179 calls)

     Called by h_psi:
     add_vuspsi   :      2.68s CPU      2.70s WALL (     188 calls)

     General routines
     calbec       :      6.09s CPU      6.13s WALL (     378 calls)
     fft          :      0.07s CPU      0.07s WALL (      22 calls)
     ffts         :      0.00s CPU      0.00s WALL (       2 calls)
     fftw         :     73.41s CPU     73.66s WALL (   83930 calls)
     interpolate  :      0.01s CPU      0.01s WALL (       2 calls)
     davcio       :      0.00s CPU      0.02s WALL (      10 calls)
 
     Parallel routines
     fft_scatter  :     65.28s CPU     65.51s WALL (   83954 calls)
 
     PWSCF        : 21m52.44s CPU    21m58.00s WALL

 
   This run was terminated on:  12:13:58  29Aug2018            

=------------------------------------------------------------------------------=
   JOB DONE.
=------------------------------------------------------------------------------=
