
     Program PWSCF v.4.3        starts on 29Aug2018 at  1:34:17 

     This program is part of the open-source Quantum ESPRESSO suite
     for quantum simulation of materials; please cite
         "P. Giannozzi et al., J. Phys.:Condens. Matter 21 395502 (2009);
          URL http://www.quantum-espresso.org", 
     in publications or presentations arising from this work. More details at
     http://www.quantum-espresso.org/wiki/index.php/Citing_Quantum-ESPRESSO

     Parallel version (MPI), running on    64 processors
     R & G space division:  proc/pool =   64

     Current dimensions of program PWSCF are:
     Max number of different atomic species (ntypx) = **
     Max number of k-points (npk) =  40000
     Max angular momentum in pseudopotentials (lmaxx) =  3
     Waiting for input...

     Subspace diagonalization in iterative solution of the eigenvalue problem:
     parallel, distributed-memory algorithm (size of sub-group:  5*  5 procs)

 
   Stick Mesh
   ----------
   nst =  6657,  nstw =   749, nsts =  2669
               n.st   n.stw   n.sts    n.g    n.gw   n.gs
   min         104      11      41    6328     237    1583
   max         105      12      42    6332     242    1626
       6657     749    2669  405123   15331  102397
 


     bravais-lattice index     =           14
     lattice parameter (a_0)   =      16.7090  a.u.
     unit-cell volume          =    4616.9515 (a.u.)^3
     number of atoms/cell      =           72
     number of atomic types    =            3
     number of electrons       =       624.00
     number of Kohn-Sham states=          374
     kinetic-energy cutoff     =      30.0000  Ry
     charge density cutoff     =     300.0000  Ry
     convergence threshold     =      1.0E-08
     mixing beta               =       0.3000
     number of iterations used =            8  local-TF  mixing
     Exchange-correlation      = SLA  PW   PBE  PBE (1434)
     EXX-fraction              =        0.00

     celldm(1)=  16.708958  celldm(2)=   1.000000  celldm(3)=   0.989708
     celldm(4)=   0.000000  celldm(5)=   0.000000  celldm(6)=   0.000000

     crystal axes: (cart. coord. in units of a_0)
               a(1) = (   1.000000   0.000000   0.000000 )  
               a(2) = (   0.000000   1.000000   0.000000 )  
               a(3) = (   0.000000   0.000000   0.989708 )  

     reciprocal axes: (cart. coord. in units 2 pi/a_0)
               b(1) = (  1.000000  0.000000  0.000000 )  
               b(2) = (  0.000000  1.000000  0.000000 )  
               b(3) = (  0.000000  0.000000  1.010399 )  


     PseudoPot. # 1 for Cr read from file Cr.pbe-van-yufengl.UPF
     MD5 check sum: b3ad88ce73ccf30ec9a6cdad427f0885
     Pseudo is Ultrasoft, Zval = 14.0
     Generated by new atomic code, or converted to UPF format
     Using radial grid of  857 points,  6 beta functions with: 
                l(1) =   0
                l(2) =   0
                l(3) =   1
                l(4) =   1
                l(5) =   2
                l(6) =   2
     Q(r) pseudized with  6 coefficients,  rinner =    1.000   1.000   1.000
                                                       1.000   1.000

     PseudoPot. # 2 for O  read from file O.pbe-van_bm.UPF
     MD5 check sum: ca2828d9fb1f294809e918903b7648d1
     Pseudo is Ultrasoft, Zval =  6.0
     Generated by new atomic code, or converted to UPF format
     Using radial grid of  737 points,  4 beta functions with: 
                l(1) =   0
                l(2) =   0
                l(3) =   1
                l(4) =   1
     Q(r) pseudized with  8 coefficients,  rinner =    0.800   0.800   0.800


     PseudoPot. # 3 for ox read from file O.pbe-van-dgp-1s1.UPF
     MD5 check sum: 2083901d62884ac3a15d661bda1575b3
     Pseudo is Ultrasoft, Zval =  7.0
     Generated by new atomic code, or converted to UPF format
     Using radial grid of  737 points,  4 beta functions with: 
                l(1) =   0
                l(2) =   0
                l(3) =   1
                l(4) =   1
     Q(r) pseudized with  8 coefficients,  rinner =    0.800   0.800   0.800


     atomic species   valence    mass     pseudopotential
        Cr            14.00    52.00000     Cr( 1.00)
        O              6.00    15.99900     O ( 1.00)
        OX             7.00    15.99900     ox( 1.00)

     Starting magnetic structure 
     atomic species   magnetization
        Cr           1.000
        O            0.000
        OX           0.000

     LDA+U calculation, Hubbard_lmax = 2
     atomic species  L   Hubbard U  Hubbard alpha
        Cr           2    0.257245    0.000000

      4 Sym.Ops. (no inversion)


   Cartesian axes

     site n.     atom                  positions (a_0 units)
         1           Cr  tau(  1) = (   0.0000000   0.0000000   0.0000000  )
         2           Cr  tau(  2) = (   0.0000000   0.0000000   0.3299027  )
         3           Cr  tau(  3) = (   0.0000000   0.0000000   0.6598055  )
         4           Cr  tau(  4) = (   0.0000000   0.5000000   0.0000000  )
         5           Cr  tau(  5) = (   0.0000000   0.5000000   0.3299027  )
         6           Cr  tau(  6) = (   0.0000000   0.5000000   0.6598055  )
         7           Cr  tau(  7) = (   0.5000000   0.0000000   0.0000000  )
         8           Cr  tau(  8) = (   0.5000000   0.0000000   0.3299027  )
         9           Cr  tau(  9) = (   0.5000000   0.0000000   0.6598055  )
        10           Cr  tau( 10) = (   0.5000000   0.5000000   0.0000000  )
        11           Cr  tau( 11) = (   0.5000000   0.5000000   0.3299027  )
        12           Cr  tau( 12) = (   0.5000000   0.5000000   0.6598055  )
        13           Cr  tau( 13) = (   0.2500000   0.2500000   0.1649514  )
        14           Cr  tau( 14) = (   0.2500000   0.2500000   0.4948541  )
        15           Cr  tau( 15) = (   0.2500000   0.2500000   0.8247569  )
        16           Cr  tau( 16) = (   0.2500000   0.7500000   0.1649514  )
        17           Cr  tau( 17) = (   0.2500000   0.7500000   0.4948541  )
        18           Cr  tau( 18) = (   0.2500000   0.7500000   0.8247569  )
        19           Cr  tau( 19) = (   0.7500000   0.2500000   0.1649514  )
        20           Cr  tau( 20) = (   0.7500000   0.2500000   0.4948541  )
        21           Cr  tau( 21) = (   0.7500000   0.2500000   0.8247569  )
        22           Cr  tau( 22) = (   0.7500000   0.7500000   0.1649514  )
        23           Cr  tau( 23) = (   0.7500000   0.7500000   0.4948541  )
        24           Cr  tau( 24) = (   0.7500000   0.7500000   0.8247569  )
        25           OX  tau( 25) = (   0.1505000   0.1505000   0.0000000  )
        26           O   tau( 26) = (   0.1505000   0.1505000   0.3299027  )
        27           O   tau( 27) = (   0.1505000   0.1505000   0.6598055  )
        28           O   tau( 28) = (   0.1505000   0.6505000   0.0000000  )
        29           O   tau( 29) = (   0.1505000   0.6505000   0.3299027  )
        30           O   tau( 30) = (   0.1505000   0.6505000   0.6598055  )
        31           O   tau( 31) = (   0.6505000   0.1505000   0.0000000  )
        32           O   tau( 32) = (   0.6505000   0.1505000   0.3299027  )
        33           O   tau( 33) = (   0.6505000   0.1505000   0.6598055  )
        34           O   tau( 34) = (   0.6505000   0.6505000   0.0000000  )
        35           O   tau( 35) = (   0.6505000   0.6505000   0.3299027  )
        36           O   tau( 36) = (   0.6505000   0.6505000   0.6598055  )
        37           O   tau( 37) = (   0.3495000   0.3495000   0.0000000  )
        38           O   tau( 38) = (   0.3495000   0.3495000   0.3299027  )
        39           O   tau( 39) = (   0.3495000   0.3495000   0.6598055  )
        40           O   tau( 40) = (   0.3495000   0.8495000   0.0000000  )
        41           O   tau( 41) = (   0.3495000   0.8495000   0.3299027  )
        42           O   tau( 42) = (   0.3495000   0.8495000   0.6598055  )
        43           O   tau( 43) = (   0.8495000   0.3495000   0.0000000  )
        44           O   tau( 44) = (   0.8495000   0.3495000   0.3299027  )
        45           O   tau( 45) = (   0.8495000   0.3495000   0.6598055  )
        46           O   tau( 46) = (   0.8495000   0.8495000   0.0000000  )
        47           O   tau( 47) = (   0.8495000   0.8495000   0.3299027  )
        48           O   tau( 48) = (   0.8495000   0.8495000   0.6598055  )
        49           O   tau( 49) = (   0.0995000   0.4005000   0.1649514  )
        50           O   tau( 50) = (   0.0995000   0.4005000   0.4948541  )
        51           O   tau( 51) = (   0.0995000   0.4005000   0.8247569  )
        52           O   tau( 52) = (   0.0995000   0.9005000   0.1649514  )
        53           O   tau( 53) = (   0.0995000   0.9005000   0.4948541  )
        54           O   tau( 54) = (   0.0995000   0.9005000   0.8247569  )
        55           O   tau( 55) = (   0.5995000   0.4005000   0.1649514  )
        56           O   tau( 56) = (   0.5995000   0.4005000   0.4948541  )
        57           O   tau( 57) = (   0.5995000   0.4005000   0.8247569  )
        58           O   tau( 58) = (   0.5995000   0.9005000   0.1649514  )
        59           O   tau( 59) = (   0.5995000   0.9005000   0.4948541  )
        60           O   tau( 60) = (   0.5995000   0.9005000   0.8247569  )
        61           O   tau( 61) = (   0.4005000   0.0995000   0.1649514  )
        62           O   tau( 62) = (   0.4005000   0.0995000   0.4948541  )
        63           O   tau( 63) = (   0.4005000   0.0995000   0.8247569  )
        64           O   tau( 64) = (   0.4005000   0.5995000   0.1649514  )
        65           O   tau( 65) = (   0.4005000   0.5995000   0.4948541  )
        66           O   tau( 66) = (   0.4005000   0.5995000   0.8247569  )
        67           O   tau( 67) = (   0.9005000   0.0995000   0.1649514  )
        68           O   tau( 68) = (   0.9005000   0.0995000   0.4948541  )
        69           O   tau( 69) = (   0.9005000   0.0995000   0.8247569  )
        70           O   tau( 70) = (   0.9005000   0.5995000   0.1649514  )
        71           O   tau( 71) = (   0.9005000   0.5995000   0.4948541  )
        72           O   tau( 72) = (   0.9005000   0.5995000   0.8247569  )

     number of k points=    12  Fermi-Dirac smearing, width (Ry)=  0.0019
                       cart. coord. in units 2pi/a_0
        k(    1) = (   0.0000000   0.0000000   0.0000000), wk =   0.1250000
        k(    2) = (   0.0000000   0.0000000  -0.5051994), wk =   0.1250000
        k(    3) = (   0.0000000  -0.5000000   0.0000000), wk =   0.2500000
        k(    4) = (   0.0000000  -0.5000000  -0.5051994), wk =   0.2500000
        k(    5) = (  -0.5000000  -0.5000000   0.0000000), wk =   0.1250000
        k(    6) = (  -0.5000000  -0.5000000  -0.5051994), wk =   0.1250000
        k(    7) = (   0.0000000   0.0000000   0.0000000), wk =   0.1250000
        k(    8) = (   0.0000000   0.0000000  -0.5051994), wk =   0.1250000
        k(    9) = (   0.0000000  -0.5000000   0.0000000), wk =   0.2500000
        k(   10) = (   0.0000000  -0.5000000  -0.5051994), wk =   0.2500000
        k(   11) = (  -0.5000000  -0.5000000   0.0000000), wk =   0.1250000
        k(   12) = (  -0.5000000  -0.5000000  -0.5051994), wk =   0.1250000

     G cutoff = 2121.5842  ( 405123 G-vectors)     FFT grid: ( 96, 96, 96)
     G cutoff =  848.6337  ( 102397 G-vectors)  smooth grid: ( 60, 60, 60)

     Largest allocated arrays     est. size (Mb)     dimensions
        Kohn-Sham Wavefunctions         1.18 Mb     (    207, 374)
        Atomic wavefunctions            1.36 Mb     (    207, 432)
        NL pseudopotentials             2.58 Mb     (    207, 816)
        Each V/rho on FFT grid          0.56 Mb     (  18432,   2)
        Each G-vector array             0.05 Mb     (   6332)
        G-vector shells                 0.02 Mb     (   3092)
     Largest temporary arrays     est. size (Mb)     dimensions
        Auxiliary wavefunctions         4.73 Mb     (    207,1496)
        Each subspace H/S matrix       34.15 Mb     (   1496,1496)
        Each <psi_i|beta_j> matrix      4.66 Mb     (    816, 374)
        Arrays for rho mixing           2.25 Mb     (  18432,   8)

     Initial potential from superposition of free atoms

     starting charge  623.98467, renormalised to  624.00000

     Parameters of the lda+U calculation:
     Number of iteration with fixed ns =  0
     Starting ns and Hubbard U :
 enter write_ns
U( 1) =  3.5000      U( 2) =  0.0000      U( 3) =  0.0000
alpha( 1) =  0.0000      alpha( 2) =  0.0000      alpha( 3) =  0.0000
atom    1   Tr[ns(na)]=   5.0000000
atom    1   spin  1
eigenvalues:  1.0000000 1.0000000 1.0000000 1.0000000 1.0000000
 eigenvectors
 1   1.0000000  0.0000000  0.0000000  0.0000000  0.0000000
 2   0.0000000  1.0000000  0.0000000  0.0000000  0.0000000
 3   0.0000000  0.0000000  1.0000000  0.0000000  0.0000000
 4   0.0000000  0.0000000  0.0000000  1.0000000  0.0000000
 5   0.0000000  0.0000000  0.0000000  0.0000000  1.0000000
 occupations
 1.000  0.000  0.000  0.000  0.000
 0.000  1.000  0.000  0.000  0.000
 0.000  0.000  1.000  0.000  0.000
 0.000  0.000  0.000  1.000  0.000
 0.000  0.000  0.000  0.000  1.000
atom    1   spin  2
eigenvalues:  0.0000000 0.0000000 0.0000000 0.0000000 0.0000000
 eigenvectors
 1   1.0000000  0.0000000  0.0000000  0.0000000  0.0000000
 2   0.0000000  1.0000000  0.0000000  0.0000000  0.0000000
 3   0.0000000  0.0000000  1.0000000  0.0000000  0.0000000
 4   0.0000000  0.0000000  0.0000000  1.0000000  0.0000000
 5   0.0000000  0.0000000  0.0000000  0.0000000  1.0000000
 occupations
 0.000  0.000  0.000  0.000  0.000
 0.000  0.000  0.000  0.000  0.000
 0.000  0.000  0.000  0.000  0.000
 0.000  0.000  0.000  0.000  0.000
 0.000  0.000  0.000  0.000  0.000
atom    2   Tr[ns(na)]=   5.0000000
atom    2   spin  1
eigenvalues:  1.0000000 1.0000000 1.0000000 1.0000000 1.0000000
 eigenvectors
 1   1.0000000  0.0000000  0.0000000  0.0000000  0.0000000
 2   0.0000000  1.0000000  0.0000000  0.0000000  0.0000000
 3   0.0000000  0.0000000  1.0000000  0.0000000  0.0000000
 4   0.0000000  0.0000000  0.0000000  1.0000000  0.0000000
 5   0.0000000  0.0000000  0.0000000  0.0000000  1.0000000
 occupations
 1.000  0.000  0.000  0.000  0.000
 0.000  1.000  0.000  0.000  0.000
 0.000  0.000  1.000  0.000  0.000
 0.000  0.000  0.000  1.000  0.000
 0.000  0.000  0.000  0.000  1.000
atom    2   spin  2
eigenvalues:  0.0000000 0.0000000 0.0000000 0.0000000 0.0000000
 eigenvectors
 1   1.0000000  0.0000000  0.0000000  0.0000000  0.0000000
 2   0.0000000  1.0000000  0.0000000  0.0000000  0.0000000
 3   0.0000000  0.0000000  1.0000000  0.0000000  0.0000000
 4   0.0000000  0.0000000  0.0000000  1.0000000  0.0000000
 5   0.0000000  0.0000000  0.0000000  0.0000000  1.0000000
 occupations
 0.000  0.000  0.000  0.000  0.000
 0.000  0.000  0.000  0.000  0.000
 0.000  0.000  0.000  0.000  0.000
 0.000  0.000  0.000  0.000  0.000
 0.000  0.000  0.000  0.000  0.000
atom    3   Tr[ns(na)]=   5.0000000
atom    3   spin  1
eigenvalues:  1.0000000 1.0000000 1.0000000 1.0000000 1.0000000
 eigenvectors
 1   1.0000000  0.0000000  0.0000000  0.0000000  0.0000000
 2   0.0000000  1.0000000  0.0000000  0.0000000  0.0000000
 3   0.0000000  0.0000000  1.0000000  0.0000000  0.0000000
 4   0.0000000  0.0000000  0.0000000  1.0000000  0.0000000
 5   0.0000000  0.0000000  0.0000000  0.0000000  1.0000000
 occupations
 1.000  0.000  0.000  0.000  0.000
 0.000  1.000  0.000  0.000  0.000
 0.000  0.000  1.000  0.000  0.000
 0.000  0.000  0.000  1.000  0.000
 0.000  0.000  0.000  0.000  1.000
atom    3   spin  2
eigenvalues:  0.0000000 0.0000000 0.0000000 0.0000000 0.0000000
 eigenvectors
 1   1.0000000  0.0000000  0.0000000  0.0000000  0.0000000
 2   0.0000000  1.0000000  0.0000000  0.0000000  0.0000000
 3   0.0000000  0.0000000  1.0000000  0.0000000  0.0000000
 4   0.0000000  0.0000000  0.0000000  1.0000000  0.0000000
 5   0.0000000  0.0000000  0.0000000  0.0000000  1.0000000
 occupations
 0.000  0.000  0.000  0.000  0.000
 0.000  0.000  0.000  0.000  0.000
 0.000  0.000  0.000  0.000  0.000
 0.000  0.000  0.000  0.000  0.000
 0.000  0.000  0.000  0.000  0.000
atom    4   Tr[ns(na)]=   5.0000000
atom    4   spin  1
eigenvalues:  1.0000000 1.0000000 1.0000000 1.0000000 1.0000000
 eigenvectors
 1   1.0000000  0.0000000  0.0000000  0.0000000  0.0000000
 2   0.0000000  1.0000000  0.0000000  0.0000000  0.0000000
 3   0.0000000  0.0000000  1.0000000  0.0000000  0.0000000
 4   0.0000000  0.0000000  0.0000000  1.0000000  0.0000000
 5   0.0000000  0.0000000  0.0000000  0.0000000  1.0000000
 occupations
 1.000  0.000  0.000  0.000  0.000
 0.000  1.000  0.000  0.000  0.000
 0.000  0.000  1.000  0.000  0.000
 0.000  0.000  0.000  1.000  0.000
 0.000  0.000  0.000  0.000  1.000
atom    4   spin  2
eigenvalues:  0.0000000 0.0000000 0.0000000 0.0000000 0.0000000
 eigenvectors
 1   1.0000000  0.0000000  0.0000000  0.0000000  0.0000000
 2   0.0000000  1.0000000  0.0000000  0.0000000  0.0000000
 3   0.0000000  0.0000000  1.0000000  0.0000000  0.0000000
 4   0.0000000  0.0000000  0.0000000  1.0000000  0.0000000
 5   0.0000000  0.0000000  0.0000000  0.0000000  1.0000000
 occupations
 0.000  0.000  0.000  0.000  0.000
 0.000  0.000  0.000  0.000  0.000
 0.000  0.000  0.000  0.000  0.000
 0.000  0.000  0.000  0.000  0.000
 0.000  0.000  0.000  0.000  0.000
atom    5   Tr[ns(na)]=   5.0000000
atom    5   spin  1
eigenvalues:  1.0000000 1.0000000 1.0000000 1.0000000 1.0000000
 eigenvectors
 1   1.0000000  0.0000000  0.0000000  0.0000000  0.0000000
 2   0.0000000  1.0000000  0.0000000  0.0000000  0.0000000
 3   0.0000000  0.0000000  1.0000000  0.0000000  0.0000000
 4   0.0000000  0.0000000  0.0000000  1.0000000  0.0000000
 5   0.0000000  0.0000000  0.0000000  0.0000000  1.0000000
 occupations
 1.000  0.000  0.000  0.000  0.000
 0.000  1.000  0.000  0.000  0.000
 0.000  0.000  1.000  0.000  0.000
 0.000  0.000  0.000  1.000  0.000
 0.000  0.000  0.000  0.000  1.000
atom    5   spin  2
eigenvalues:  0.0000000 0.0000000 0.0000000 0.0000000 0.0000000
 eigenvectors
 1   1.0000000  0.0000000  0.0000000  0.0000000  0.0000000
 2   0.0000000  1.0000000  0.0000000  0.0000000  0.0000000
 3   0.0000000  0.0000000  1.0000000  0.0000000  0.0000000
 4   0.0000000  0.0000000  0.0000000  1.0000000  0.0000000
 5   0.0000000  0.0000000  0.0000000  0.0000000  1.0000000
 occupations
 0.000  0.000  0.000  0.000  0.000
 0.000  0.000  0.000  0.000  0.000
 0.000  0.000  0.000  0.000  0.000
 0.000  0.000  0.000  0.000  0.000
 0.000  0.000  0.000  0.000  0.000
atom    6   Tr[ns(na)]=   5.0000000
atom    6   spin  1
eigenvalues:  1.0000000 1.0000000 1.0000000 1.0000000 1.0000000
 eigenvectors
 1   1.0000000  0.0000000  0.0000000  0.0000000  0.0000000
 2   0.0000000  1.0000000  0.0000000  0.0000000  0.0000000
 3   0.0000000  0.0000000  1.0000000  0.0000000  0.0000000
 4   0.0000000  0.0000000  0.0000000  1.0000000  0.0000000
 5   0.0000000  0.0000000  0.0000000  0.0000000  1.0000000
 occupations
 1.000  0.000  0.000  0.000  0.000
 0.000  1.000  0.000  0.000  0.000
 0.000  0.000  1.000  0.000  0.000
 0.000  0.000  0.000  1.000  0.000
 0.000  0.000  0.000  0.000  1.000
atom    6   spin  2
eigenvalues:  0.0000000 0.0000000 0.0000000 0.0000000 0.0000000
 eigenvectors
 1   1.0000000  0.0000000  0.0000000  0.0000000  0.0000000
 2   0.0000000  1.0000000  0.0000000  0.0000000  0.0000000
 3   0.0000000  0.0000000  1.0000000  0.0000000  0.0000000
 4   0.0000000  0.0000000  0.0000000  1.0000000  0.0000000
 5   0.0000000  0.0000000  0.0000000  0.0000000  1.0000000
 occupations
 0.000  0.000  0.000  0.000  0.000
 0.000  0.000  0.000  0.000  0.000
 0.000  0.000  0.000  0.000  0.000
 0.000  0.000  0.000  0.000  0.000
 0.000  0.000  0.000  0.000  0.000
atom    7   Tr[ns(na)]=   5.0000000
atom    7   spin  1
eigenvalues:  1.0000000 1.0000000 1.0000000 1.0000000 1.0000000
 eigenvectors
 1   1.0000000  0.0000000  0.0000000  0.0000000  0.0000000
 2   0.0000000  1.0000000  0.0000000  0.0000000  0.0000000
 3   0.0000000  0.0000000  1.0000000  0.0000000  0.0000000
 4   0.0000000  0.0000000  0.0000000  1.0000000  0.0000000
 5   0.0000000  0.0000000  0.0000000  0.0000000  1.0000000
 occupations
 1.000  0.000  0.000  0.000  0.000
 0.000  1.000  0.000  0.000  0.000
 0.000  0.000  1.000  0.000  0.000
 0.000  0.000  0.000  1.000  0.000
 0.000  0.000  0.000  0.000  1.000
atom    7   spin  2
eigenvalues:  0.0000000 0.0000000 0.0000000 0.0000000 0.0000000
 eigenvectors
 1   1.0000000  0.0000000  0.0000000  0.0000000  0.0000000
 2   0.0000000  1.0000000  0.0000000  0.0000000  0.0000000
 3   0.0000000  0.0000000  1.0000000  0.0000000  0.0000000
 4   0.0000000  0.0000000  0.0000000  1.0000000  0.0000000
 5   0.0000000  0.0000000  0.0000000  0.0000000  1.0000000
 occupations
 0.000  0.000  0.000  0.000  0.000
 0.000  0.000  0.000  0.000  0.000
 0.000  0.000  0.000  0.000  0.000
 0.000  0.000  0.000  0.000  0.000
 0.000  0.000  0.000  0.000  0.000
atom    8   Tr[ns(na)]=   5.0000000
atom    8   spin  1
eigenvalues:  1.0000000 1.0000000 1.0000000 1.0000000 1.0000000
 eigenvectors
 1   1.0000000  0.0000000  0.0000000  0.0000000  0.0000000
 2   0.0000000  1.0000000  0.0000000  0.0000000  0.0000000
 3   0.0000000  0.0000000  1.0000000  0.0000000  0.0000000
 4   0.0000000  0.0000000  0.0000000  1.0000000  0.0000000
 5   0.0000000  0.0000000  0.0000000  0.0000000  1.0000000
 occupations
 1.000  0.000  0.000  0.000  0.000
 0.000  1.000  0.000  0.000  0.000
 0.000  0.000  1.000  0.000  0.000
 0.000  0.000  0.000  1.000  0.000
 0.000  0.000  0.000  0.000  1.000
atom    8   spin  2
eigenvalues:  0.0000000 0.0000000 0.0000000 0.0000000 0.0000000
 eigenvectors
 1   1.0000000  0.0000000  0.0000000  0.0000000  0.0000000
 2   0.0000000  1.0000000  0.0000000  0.0000000  0.0000000
 3   0.0000000  0.0000000  1.0000000  0.0000000  0.0000000
 4   0.0000000  0.0000000  0.0000000  1.0000000  0.0000000
 5   0.0000000  0.0000000  0.0000000  0.0000000  1.0000000
 occupations
 0.000  0.000  0.000  0.000  0.000
 0.000  0.000  0.000  0.000  0.000
 0.000  0.000  0.000  0.000  0.000
 0.000  0.000  0.000  0.000  0.000
 0.000  0.000  0.000  0.000  0.000
atom    9   Tr[ns(na)]=   5.0000000
atom    9   spin  1
eigenvalues:  1.0000000 1.0000000 1.0000000 1.0000000 1.0000000
 eigenvectors
 1   1.0000000  0.0000000  0.0000000  0.0000000  0.0000000
 2   0.0000000  1.0000000  0.0000000  0.0000000  0.0000000
 3   0.0000000  0.0000000  1.0000000  0.0000000  0.0000000
 4   0.0000000  0.0000000  0.0000000  1.0000000  0.0000000
 5   0.0000000  0.0000000  0.0000000  0.0000000  1.0000000
 occupations
 1.000  0.000  0.000  0.000  0.000
 0.000  1.000  0.000  0.000  0.000
 0.000  0.000  1.000  0.000  0.000
 0.000  0.000  0.000  1.000  0.000
 0.000  0.000  0.000  0.000  1.000
atom    9   spin  2
eigenvalues:  0.0000000 0.0000000 0.0000000 0.0000000 0.0000000
 eigenvectors
 1   1.0000000  0.0000000  0.0000000  0.0000000  0.0000000
 2   0.0000000  1.0000000  0.0000000  0.0000000  0.0000000
 3   0.0000000  0.0000000  1.0000000  0.0000000  0.0000000
 4   0.0000000  0.0000000  0.0000000  1.0000000  0.0000000
 5   0.0000000  0.0000000  0.0000000  0.0000000  1.0000000
 occupations
 0.000  0.000  0.000  0.000  0.000
 0.000  0.000  0.000  0.000  0.000
 0.000  0.000  0.000  0.000  0.000
 0.000  0.000  0.000  0.000  0.000
 0.000  0.000  0.000  0.000  0.000
atom   10   Tr[ns(na)]=   5.0000000
atom   10   spin  1
eigenvalues:  1.0000000 1.0000000 1.0000000 1.0000000 1.0000000
 eigenvectors
 1   1.0000000  0.0000000  0.0000000  0.0000000  0.0000000
 2   0.0000000  1.0000000  0.0000000  0.0000000  0.0000000
 3   0.0000000  0.0000000  1.0000000  0.0000000  0.0000000
 4   0.0000000  0.0000000  0.0000000  1.0000000  0.0000000
 5   0.0000000  0.0000000  0.0000000  0.0000000  1.0000000
 occupations
 1.000  0.000  0.000  0.000  0.000
 0.000  1.000  0.000  0.000  0.000
 0.000  0.000  1.000  0.000  0.000
 0.000  0.000  0.000  1.000  0.000
 0.000  0.000  0.000  0.000  1.000
atom   10   spin  2
eigenvalues:  0.0000000 0.0000000 0.0000000 0.0000000 0.0000000
 eigenvectors
 1   1.0000000  0.0000000  0.0000000  0.0000000  0.0000000
 2   0.0000000  1.0000000  0.0000000  0.0000000  0.0000000
 3   0.0000000  0.0000000  1.0000000  0.0000000  0.0000000
 4   0.0000000  0.0000000  0.0000000  1.0000000  0.0000000
 5   0.0000000  0.0000000  0.0000000  0.0000000  1.0000000
 occupations
 0.000  0.000  0.000  0.000  0.000
 0.000  0.000  0.000  0.000  0.000
 0.000  0.000  0.000  0.000  0.000
 0.000  0.000  0.000  0.000  0.000
 0.000  0.000  0.000  0.000  0.000
atom   11   Tr[ns(na)]=   5.0000000
atom   11   spin  1
eigenvalues:  1.0000000 1.0000000 1.0000000 1.0000000 1.0000000
 eigenvectors
 1   1.0000000  0.0000000  0.0000000  0.0000000  0.0000000
 2   0.0000000  1.0000000  0.0000000  0.0000000  0.0000000
 3   0.0000000  0.0000000  1.0000000  0.0000000  0.0000000
 4   0.0000000  0.0000000  0.0000000  1.0000000  0.0000000
 5   0.0000000  0.0000000  0.0000000  0.0000000  1.0000000
 occupations
 1.000  0.000  0.000  0.000  0.000
 0.000  1.000  0.000  0.000  0.000
 0.000  0.000  1.000  0.000  0.000
 0.000  0.000  0.000  1.000  0.000
 0.000  0.000  0.000  0.000  1.000
atom   11   spin  2
eigenvalues:  0.0000000 0.0000000 0.0000000 0.0000000 0.0000000
 eigenvectors
 1   1.0000000  0.0000000  0.0000000  0.0000000  0.0000000
 2   0.0000000  1.0000000  0.0000000  0.0000000  0.0000000
 3   0.0000000  0.0000000  1.0000000  0.0000000  0.0000000
 4   0.0000000  0.0000000  0.0000000  1.0000000  0.0000000
 5   0.0000000  0.0000000  0.0000000  0.0000000  1.0000000
 occupations
 0.000  0.000  0.000  0.000  0.000
 0.000  0.000  0.000  0.000  0.000
 0.000  0.000  0.000  0.000  0.000
 0.000  0.000  0.000  0.000  0.000
 0.000  0.000  0.000  0.000  0.000
atom   12   Tr[ns(na)]=   5.0000000
atom   12   spin  1
eigenvalues:  1.0000000 1.0000000 1.0000000 1.0000000 1.0000000
 eigenvectors
 1   1.0000000  0.0000000  0.0000000  0.0000000  0.0000000
 2   0.0000000  1.0000000  0.0000000  0.0000000  0.0000000
 3   0.0000000  0.0000000  1.0000000  0.0000000  0.0000000
 4   0.0000000  0.0000000  0.0000000  1.0000000  0.0000000
 5   0.0000000  0.0000000  0.0000000  0.0000000  1.0000000
 occupations
 1.000  0.000  0.000  0.000  0.000
 0.000  1.000  0.000  0.000  0.000
 0.000  0.000  1.000  0.000  0.000
 0.000  0.000  0.000  1.000  0.000
 0.000  0.000  0.000  0.000  1.000
atom   12   spin  2
eigenvalues:  0.0000000 0.0000000 0.0000000 0.0000000 0.0000000
 eigenvectors
 1   1.0000000  0.0000000  0.0000000  0.0000000  0.0000000
 2   0.0000000  1.0000000  0.0000000  0.0000000  0.0000000
 3   0.0000000  0.0000000  1.0000000  0.0000000  0.0000000
 4   0.0000000  0.0000000  0.0000000  1.0000000  0.0000000
 5   0.0000000  0.0000000  0.0000000  0.0000000  1.0000000
 occupations
 0.000  0.000  0.000  0.000  0.000
 0.000  0.000  0.000  0.000  0.000
 0.000  0.000  0.000  0.000  0.000
 0.000  0.000  0.000  0.000  0.000
 0.000  0.000  0.000  0.000  0.000
atom   13   Tr[ns(na)]=   5.0000000
atom   13   spin  1
eigenvalues:  1.0000000 1.0000000 1.0000000 1.0000000 1.0000000
 eigenvectors
 1   1.0000000  0.0000000  0.0000000  0.0000000  0.0000000
 2   0.0000000  1.0000000  0.0000000  0.0000000  0.0000000
 3   0.0000000  0.0000000  1.0000000  0.0000000  0.0000000
 4   0.0000000  0.0000000  0.0000000  1.0000000  0.0000000
 5   0.0000000  0.0000000  0.0000000  0.0000000  1.0000000
 occupations
 1.000  0.000  0.000  0.000  0.000
 0.000  1.000  0.000  0.000  0.000
 0.000  0.000  1.000  0.000  0.000
 0.000  0.000  0.000  1.000  0.000
 0.000  0.000  0.000  0.000  1.000
atom   13   spin  2
eigenvalues:  0.0000000 0.0000000 0.0000000 0.0000000 0.0000000
 eigenvectors
 1   1.0000000  0.0000000  0.0000000  0.0000000  0.0000000
 2   0.0000000  1.0000000  0.0000000  0.0000000  0.0000000
 3   0.0000000  0.0000000  1.0000000  0.0000000  0.0000000
 4   0.0000000  0.0000000  0.0000000  1.0000000  0.0000000
 5   0.0000000  0.0000000  0.0000000  0.0000000  1.0000000
 occupations
 0.000  0.000  0.000  0.000  0.000
 0.000  0.000  0.000  0.000  0.000
 0.000  0.000  0.000  0.000  0.000
 0.000  0.000  0.000  0.000  0.000
 0.000  0.000  0.000  0.000  0.000
atom   14   Tr[ns(na)]=   5.0000000
atom   14   spin  1
eigenvalues:  1.0000000 1.0000000 1.0000000 1.0000000 1.0000000
 eigenvectors
 1   1.0000000  0.0000000  0.0000000  0.0000000  0.0000000
 2   0.0000000  1.0000000  0.0000000  0.0000000  0.0000000
 3   0.0000000  0.0000000  1.0000000  0.0000000  0.0000000
 4   0.0000000  0.0000000  0.0000000  1.0000000  0.0000000
 5   0.0000000  0.0000000  0.0000000  0.0000000  1.0000000
 occupations
 1.000  0.000  0.000  0.000  0.000
 0.000  1.000  0.000  0.000  0.000
 0.000  0.000  1.000  0.000  0.000
 0.000  0.000  0.000  1.000  0.000
 0.000  0.000  0.000  0.000  1.000
atom   14   spin  2
eigenvalues:  0.0000000 0.0000000 0.0000000 0.0000000 0.0000000
 eigenvectors
 1   1.0000000  0.0000000  0.0000000  0.0000000  0.0000000
 2   0.0000000  1.0000000  0.0000000  0.0000000  0.0000000
 3   0.0000000  0.0000000  1.0000000  0.0000000  0.0000000
 4   0.0000000  0.0000000  0.0000000  1.0000000  0.0000000
 5   0.0000000  0.0000000  0.0000000  0.0000000  1.0000000
 occupations
 0.000  0.000  0.000  0.000  0.000
 0.000  0.000  0.000  0.000  0.000
 0.000  0.000  0.000  0.000  0.000
 0.000  0.000  0.000  0.000  0.000
 0.000  0.000  0.000  0.000  0.000
atom   15   Tr[ns(na)]=   5.0000000
atom   15   spin  1
eigenvalues:  1.0000000 1.0000000 1.0000000 1.0000000 1.0000000
 eigenvectors
 1   1.0000000  0.0000000  0.0000000  0.0000000  0.0000000
 2   0.0000000  1.0000000  0.0000000  0.0000000  0.0000000
 3   0.0000000  0.0000000  1.0000000  0.0000000  0.0000000
 4   0.0000000  0.0000000  0.0000000  1.0000000  0.0000000
 5   0.0000000  0.0000000  0.0000000  0.0000000  1.0000000
 occupations
 1.000  0.000  0.000  0.000  0.000
 0.000  1.000  0.000  0.000  0.000
 0.000  0.000  1.000  0.000  0.000
 0.000  0.000  0.000  1.000  0.000
 0.000  0.000  0.000  0.000  1.000
atom   15   spin  2
eigenvalues:  0.0000000 0.0000000 0.0000000 0.0000000 0.0000000
 eigenvectors
 1   1.0000000  0.0000000  0.0000000  0.0000000  0.0000000
 2   0.0000000  1.0000000  0.0000000  0.0000000  0.0000000
 3   0.0000000  0.0000000  1.0000000  0.0000000  0.0000000
 4   0.0000000  0.0000000  0.0000000  1.0000000  0.0000000
 5   0.0000000  0.0000000  0.0000000  0.0000000  1.0000000
 occupations
 0.000  0.000  0.000  0.000  0.000
 0.000  0.000  0.000  0.000  0.000
 0.000  0.000  0.000  0.000  0.000
 0.000  0.000  0.000  0.000  0.000
 0.000  0.000  0.000  0.000  0.000
atom   16   Tr[ns(na)]=   5.0000000
atom   16   spin  1
eigenvalues:  1.0000000 1.0000000 1.0000000 1.0000000 1.0000000
 eigenvectors
 1   1.0000000  0.0000000  0.0000000  0.0000000  0.0000000
 2   0.0000000  1.0000000  0.0000000  0.0000000  0.0000000
 3   0.0000000  0.0000000  1.0000000  0.0000000  0.0000000
 4   0.0000000  0.0000000  0.0000000  1.0000000  0.0000000
 5   0.0000000  0.0000000  0.0000000  0.0000000  1.0000000
 occupations
 1.000  0.000  0.000  0.000  0.000
 0.000  1.000  0.000  0.000  0.000
 0.000  0.000  1.000  0.000  0.000
 0.000  0.000  0.000  1.000  0.000
 0.000  0.000  0.000  0.000  1.000
atom   16   spin  2
eigenvalues:  0.0000000 0.0000000 0.0000000 0.0000000 0.0000000
 eigenvectors
 1   1.0000000  0.0000000  0.0000000  0.0000000  0.0000000
 2   0.0000000  1.0000000  0.0000000  0.0000000  0.0000000
 3   0.0000000  0.0000000  1.0000000  0.0000000  0.0000000
 4   0.0000000  0.0000000  0.0000000  1.0000000  0.0000000
 5   0.0000000  0.0000000  0.0000000  0.0000000  1.0000000
 occupations
 0.000  0.000  0.000  0.000  0.000
 0.000  0.000  0.000  0.000  0.000
 0.000  0.000  0.000  0.000  0.000
 0.000  0.000  0.000  0.000  0.000
 0.000  0.000  0.000  0.000  0.000
atom   17   Tr[ns(na)]=   5.0000000
atom   17   spin  1
eigenvalues:  1.0000000 1.0000000 1.0000000 1.0000000 1.0000000
 eigenvectors
 1   1.0000000  0.0000000  0.0000000  0.0000000  0.0000000
 2   0.0000000  1.0000000  0.0000000  0.0000000  0.0000000
 3   0.0000000  0.0000000  1.0000000  0.0000000  0.0000000
 4   0.0000000  0.0000000  0.0000000  1.0000000  0.0000000
 5   0.0000000  0.0000000  0.0000000  0.0000000  1.0000000
 occupations
 1.000  0.000  0.000  0.000  0.000
 0.000  1.000  0.000  0.000  0.000
 0.000  0.000  1.000  0.000  0.000
 0.000  0.000  0.000  1.000  0.000
 0.000  0.000  0.000  0.000  1.000
atom   17   spin  2
eigenvalues:  0.0000000 0.0000000 0.0000000 0.0000000 0.0000000
 eigenvectors
 1   1.0000000  0.0000000  0.0000000  0.0000000  0.0000000
 2   0.0000000  1.0000000  0.0000000  0.0000000  0.0000000
 3   0.0000000  0.0000000  1.0000000  0.0000000  0.0000000
 4   0.0000000  0.0000000  0.0000000  1.0000000  0.0000000
 5   0.0000000  0.0000000  0.0000000  0.0000000  1.0000000
 occupations
 0.000  0.000  0.000  0.000  0.000
 0.000  0.000  0.000  0.000  0.000
 0.000  0.000  0.000  0.000  0.000
 0.000  0.000  0.000  0.000  0.000
 0.000  0.000  0.000  0.000  0.000
atom   18   Tr[ns(na)]=   5.0000000
atom   18   spin  1
eigenvalues:  1.0000000 1.0000000 1.0000000 1.0000000 1.0000000
 eigenvectors
 1   1.0000000  0.0000000  0.0000000  0.0000000  0.0000000
 2   0.0000000  1.0000000  0.0000000  0.0000000  0.0000000
 3   0.0000000  0.0000000  1.0000000  0.0000000  0.0000000
 4   0.0000000  0.0000000  0.0000000  1.0000000  0.0000000
 5   0.0000000  0.0000000  0.0000000  0.0000000  1.0000000
 occupations
 1.000  0.000  0.000  0.000  0.000
 0.000  1.000  0.000  0.000  0.000
 0.000  0.000  1.000  0.000  0.000
 0.000  0.000  0.000  1.000  0.000
 0.000  0.000  0.000  0.000  1.000
atom   18   spin  2
eigenvalues:  0.0000000 0.0000000 0.0000000 0.0000000 0.0000000
 eigenvectors
 1   1.0000000  0.0000000  0.0000000  0.0000000  0.0000000
 2   0.0000000  1.0000000  0.0000000  0.0000000  0.0000000
 3   0.0000000  0.0000000  1.0000000  0.0000000  0.0000000
 4   0.0000000  0.0000000  0.0000000  1.0000000  0.0000000
 5   0.0000000  0.0000000  0.0000000  0.0000000  1.0000000
 occupations
 0.000  0.000  0.000  0.000  0.000
 0.000  0.000  0.000  0.000  0.000
 0.000  0.000  0.000  0.000  0.000
 0.000  0.000  0.000  0.000  0.000
 0.000  0.000  0.000  0.000  0.000
atom   19   Tr[ns(na)]=   5.0000000
atom   19   spin  1
eigenvalues:  1.0000000 1.0000000 1.0000000 1.0000000 1.0000000
 eigenvectors
 1   1.0000000  0.0000000  0.0000000  0.0000000  0.0000000
 2   0.0000000  1.0000000  0.0000000  0.0000000  0.0000000
 3   0.0000000  0.0000000  1.0000000  0.0000000  0.0000000
 4   0.0000000  0.0000000  0.0000000  1.0000000  0.0000000
 5   0.0000000  0.0000000  0.0000000  0.0000000  1.0000000
 occupations
 1.000  0.000  0.000  0.000  0.000
 0.000  1.000  0.000  0.000  0.000
 0.000  0.000  1.000  0.000  0.000
 0.000  0.000  0.000  1.000  0.000
 0.000  0.000  0.000  0.000  1.000
atom   19   spin  2
eigenvalues:  0.0000000 0.0000000 0.0000000 0.0000000 0.0000000
 eigenvectors
 1   1.0000000  0.0000000  0.0000000  0.0000000  0.0000000
 2   0.0000000  1.0000000  0.0000000  0.0000000  0.0000000
 3   0.0000000  0.0000000  1.0000000  0.0000000  0.0000000
 4   0.0000000  0.0000000  0.0000000  1.0000000  0.0000000
 5   0.0000000  0.0000000  0.0000000  0.0000000  1.0000000
 occupations
 0.000  0.000  0.000  0.000  0.000
 0.000  0.000  0.000  0.000  0.000
 0.000  0.000  0.000  0.000  0.000
 0.000  0.000  0.000  0.000  0.000
 0.000  0.000  0.000  0.000  0.000
atom   20   Tr[ns(na)]=   5.0000000
atom   20   spin  1
eigenvalues:  1.0000000 1.0000000 1.0000000 1.0000000 1.0000000
 eigenvectors
 1   1.0000000  0.0000000  0.0000000  0.0000000  0.0000000
 2   0.0000000  1.0000000  0.0000000  0.0000000  0.0000000
 3   0.0000000  0.0000000  1.0000000  0.0000000  0.0000000
 4   0.0000000  0.0000000  0.0000000  1.0000000  0.0000000
 5   0.0000000  0.0000000  0.0000000  0.0000000  1.0000000
 occupations
 1.000  0.000  0.000  0.000  0.000
 0.000  1.000  0.000  0.000  0.000
 0.000  0.000  1.000  0.000  0.000
 0.000  0.000  0.000  1.000  0.000
 0.000  0.000  0.000  0.000  1.000
atom   20   spin  2
eigenvalues:  0.0000000 0.0000000 0.0000000 0.0000000 0.0000000
 eigenvectors
 1   1.0000000  0.0000000  0.0000000  0.0000000  0.0000000
 2   0.0000000  1.0000000  0.0000000  0.0000000  0.0000000
 3   0.0000000  0.0000000  1.0000000  0.0000000  0.0000000
 4   0.0000000  0.0000000  0.0000000  1.0000000  0.0000000
 5   0.0000000  0.0000000  0.0000000  0.0000000  1.0000000
 occupations
 0.000  0.000  0.000  0.000  0.000
 0.000  0.000  0.000  0.000  0.000
 0.000  0.000  0.000  0.000  0.000
 0.000  0.000  0.000  0.000  0.000
 0.000  0.000  0.000  0.000  0.000
atom   21   Tr[ns(na)]=   5.0000000
atom   21   spin  1
eigenvalues:  1.0000000 1.0000000 1.0000000 1.0000000 1.0000000
 eigenvectors
 1   1.0000000  0.0000000  0.0000000  0.0000000  0.0000000
 2   0.0000000  1.0000000  0.0000000  0.0000000  0.0000000
 3   0.0000000  0.0000000  1.0000000  0.0000000  0.0000000
 4   0.0000000  0.0000000  0.0000000  1.0000000  0.0000000
 5   0.0000000  0.0000000  0.0000000  0.0000000  1.0000000
 occupations
 1.000  0.000  0.000  0.000  0.000
 0.000  1.000  0.000  0.000  0.000
 0.000  0.000  1.000  0.000  0.000
 0.000  0.000  0.000  1.000  0.000
 0.000  0.000  0.000  0.000  1.000
atom   21   spin  2
eigenvalues:  0.0000000 0.0000000 0.0000000 0.0000000 0.0000000
 eigenvectors
 1   1.0000000  0.0000000  0.0000000  0.0000000  0.0000000
 2   0.0000000  1.0000000  0.0000000  0.0000000  0.0000000
 3   0.0000000  0.0000000  1.0000000  0.0000000  0.0000000
 4   0.0000000  0.0000000  0.0000000  1.0000000  0.0000000
 5   0.0000000  0.0000000  0.0000000  0.0000000  1.0000000
 occupations
 0.000  0.000  0.000  0.000  0.000
 0.000  0.000  0.000  0.000  0.000
 0.000  0.000  0.000  0.000  0.000
 0.000  0.000  0.000  0.000  0.000
 0.000  0.000  0.000  0.000  0.000
atom   22   Tr[ns(na)]=   5.0000000
atom   22   spin  1
eigenvalues:  1.0000000 1.0000000 1.0000000 1.0000000 1.0000000
 eigenvectors
 1   1.0000000  0.0000000  0.0000000  0.0000000  0.0000000
 2   0.0000000  1.0000000  0.0000000  0.0000000  0.0000000
 3   0.0000000  0.0000000  1.0000000  0.0000000  0.0000000
 4   0.0000000  0.0000000  0.0000000  1.0000000  0.0000000
 5   0.0000000  0.0000000  0.0000000  0.0000000  1.0000000
 occupations
 1.000  0.000  0.000  0.000  0.000
 0.000  1.000  0.000  0.000  0.000
 0.000  0.000  1.000  0.000  0.000
 0.000  0.000  0.000  1.000  0.000
 0.000  0.000  0.000  0.000  1.000
atom   22   spin  2
eigenvalues:  0.0000000 0.0000000 0.0000000 0.0000000 0.0000000
 eigenvectors
 1   1.0000000  0.0000000  0.0000000  0.0000000  0.0000000
 2   0.0000000  1.0000000  0.0000000  0.0000000  0.0000000
 3   0.0000000  0.0000000  1.0000000  0.0000000  0.0000000
 4   0.0000000  0.0000000  0.0000000  1.0000000  0.0000000
 5   0.0000000  0.0000000  0.0000000  0.0000000  1.0000000
 occupations
 0.000  0.000  0.000  0.000  0.000
 0.000  0.000  0.000  0.000  0.000
 0.000  0.000  0.000  0.000  0.000
 0.000  0.000  0.000  0.000  0.000
 0.000  0.000  0.000  0.000  0.000
atom   23   Tr[ns(na)]=   5.0000000
atom   23   spin  1
eigenvalues:  1.0000000 1.0000000 1.0000000 1.0000000 1.0000000
 eigenvectors
 1   1.0000000  0.0000000  0.0000000  0.0000000  0.0000000
 2   0.0000000  1.0000000  0.0000000  0.0000000  0.0000000
 3   0.0000000  0.0000000  1.0000000  0.0000000  0.0000000
 4   0.0000000  0.0000000  0.0000000  1.0000000  0.0000000
 5   0.0000000  0.0000000  0.0000000  0.0000000  1.0000000
 occupations
 1.000  0.000  0.000  0.000  0.000
 0.000  1.000  0.000  0.000  0.000
 0.000  0.000  1.000  0.000  0.000
 0.000  0.000  0.000  1.000  0.000
 0.000  0.000  0.000  0.000  1.000
atom   23   spin  2
eigenvalues:  0.0000000 0.0000000 0.0000000 0.0000000 0.0000000
 eigenvectors
 1   1.0000000  0.0000000  0.0000000  0.0000000  0.0000000
 2   0.0000000  1.0000000  0.0000000  0.0000000  0.0000000
 3   0.0000000  0.0000000  1.0000000  0.0000000  0.0000000
 4   0.0000000  0.0000000  0.0000000  1.0000000  0.0000000
 5   0.0000000  0.0000000  0.0000000  0.0000000  1.0000000
 occupations
 0.000  0.000  0.000  0.000  0.000
 0.000  0.000  0.000  0.000  0.000
 0.000  0.000  0.000  0.000  0.000
 0.000  0.000  0.000  0.000  0.000
 0.000  0.000  0.000  0.000  0.000
atom   24   Tr[ns(na)]=   5.0000000
atom   24   spin  1
eigenvalues:  1.0000000 1.0000000 1.0000000 1.0000000 1.0000000
 eigenvectors
 1   1.0000000  0.0000000  0.0000000  0.0000000  0.0000000
 2   0.0000000  1.0000000  0.0000000  0.0000000  0.0000000
 3   0.0000000  0.0000000  1.0000000  0.0000000  0.0000000
 4   0.0000000  0.0000000  0.0000000  1.0000000  0.0000000
 5   0.0000000  0.0000000  0.0000000  0.0000000  1.0000000
 occupations
 1.000  0.000  0.000  0.000  0.000
 0.000  1.000  0.000  0.000  0.000
 0.000  0.000  1.000  0.000  0.000
 0.000  0.000  0.000  1.000  0.000
 0.000  0.000  0.000  0.000  1.000
atom   24   spin  2
eigenvalues:  0.0000000 0.0000000 0.0000000 0.0000000 0.0000000
 eigenvectors
 1   1.0000000  0.0000000  0.0000000  0.0000000  0.0000000
 2   0.0000000  1.0000000  0.0000000  0.0000000  0.0000000
 3   0.0000000  0.0000000  1.0000000  0.0000000  0.0000000
 4   0.0000000  0.0000000  0.0000000  1.0000000  0.0000000
 5   0.0000000  0.0000000  0.0000000  0.0000000  1.0000000
 occupations
 0.000  0.000  0.000  0.000  0.000
 0.000  0.000  0.000  0.000  0.000
 0.000  0.000  0.000  0.000  0.000
 0.000  0.000  0.000  0.000  0.000
 0.000  0.000  0.000  0.000  0.000
nsum = 120.0000000
 exit write_ns
 Atomic wfc used for LDA+U Projector are NOT orthogonalized
     Starting wfc are  432 atomic wfcs

     total cpu time spent up to now is     34.40 secs

     per-process dynamical memory:    93.8 Mb

     Self-consistent Calculation

     iteration #  1     ecut=    30.00 Ry     beta=0.30
     Davidson diagonalization with overlap
     ethr =  1.00E-02,  avg # of iterations =  4.3
 enter write_ns
U( 1) =  3.5000      U( 2) =  0.0000      U( 3) =  0.0000
alpha( 1) =  0.0000      alpha( 2) =  0.0000      alpha( 3) =  0.0000
atom    1   Tr[ns(na)]=   5.4653991
atom    1   spin  1
eigenvalues:  0.9541778 0.9574373 0.9927274 0.9932756 0.9934579
 eigenvectors
 1  -0.5761663 -0.0000000  0.0000000  0.0000000  0.8173325
 2   0.0000000 -0.7071068  0.7071068  0.0000000 -0.0000000
 3  -0.0000000 -0.0000000 -0.0000000  1.0000000 -0.0000000
 4   0.0000000  0.7071068  0.7071068  0.0000000  0.0000000
 5   0.8173325 -0.0000000 -0.0000000  0.0000000  0.5761663
 occupations
 0.980 -0.000 -0.000  0.000  0.018
-0.000  0.975  0.018  0.000  0.000
-0.000  0.018  0.975  0.000  0.000
 0.000  0.000  0.000  0.993 -0.000
 0.018  0.000  0.000 -0.000  0.967
atom    1   spin  2
eigenvalues:  0.0631529 0.0713886 0.0744036 0.1778336 0.1875445
 eigenvectors
 1  -0.0000000 -0.0000000 -0.0000000  1.0000000  0.0000000
 2   0.7892455 -0.0000000 -0.0000000  0.0000000  0.6140778
 3  -0.0000000 -0.7071068 -0.7071068 -0.0000000  0.0000000
 4  -0.6140778 -0.0000000  0.0000000 -0.0000000  0.7892455
 5  -0.0000000  0.7071068 -0.7071068  0.0000000  0.0000000
 occupations
 0.112 -0.000 -0.000  0.000 -0.052
-0.000  0.131 -0.057  0.000  0.000
-0.000 -0.057  0.131 -0.000  0.000
 0.000  0.000 -0.000  0.063 -0.000
-0.052  0.000  0.000 -0.000  0.138
atom    2   Tr[ns(na)]=   4.8082270
atom    2   spin  1
eigenvalues:  0.6894361 0.7088396 0.9080691 0.9514033 0.9826125
 eigenvectors
 1   0.0000000  0.7069813 -0.7069813 -0.0188372 -0.0000000
 2   0.5196059  0.0090954  0.0090954 -0.0000000 -0.8543092
 3   0.0000000  0.0133199 -0.0133199  0.9998226 -0.0000000
 4   0.0497640 -0.7061485 -0.7061485 -0.0000000  0.0152314
 5  -0.8529556 -0.0356581 -0.0356581 -0.0000000 -0.5195419
 occupations
 0.909 -0.000 -0.000  0.000  0.122
-0.000  0.820  0.131  0.003  0.002
-0.000  0.131  0.820 -0.003  0.002
 0.000  0.003 -0.003  0.908 -0.000
 0.122  0.002  0.002 -0.000  0.783
atom    2   spin  2
eigenvalues:  0.0636590 0.0646900 0.0744529 0.1746288 0.1904357
 eigenvectors
 1   0.0000000  0.0054938 -0.0054938 -0.9999698  0.0000000
 2   0.7985684 -0.0422074 -0.0422074  0.0000000  0.5989370
 3  -0.0511130 -0.7058349 -0.7058349 -0.0000000 -0.0313316
 4  -0.0000000 -0.7070854  0.7070854 -0.0077694  0.0000000
 5  -0.5997299  0.0039549  0.0039549 -0.0000000  0.8001830
 occupations
 0.110  0.000  0.000  0.000 -0.060
 0.000  0.125 -0.050  0.001  0.001
 0.000 -0.050  0.125 -0.001  0.001
 0.000  0.001 -0.001  0.064 -0.000
-0.060  0.001  0.001 -0.000  0.145
atom    3   Tr[ns(na)]=   4.8082270
atom    3   spin  1
eigenvalues:  0.6894361 0.7088396 0.9080691 0.9514033 0.9826125
 eigenvectors
 1   0.0000000  0.7069813 -0.7069813  0.0188372 -0.0000000
 2   0.5196059 -0.0090954 -0.0090954 -0.0000000 -0.8543092
 3   0.0000000 -0.0133199  0.0133199  0.9998226 -0.0000000
 4  -0.0497640 -0.7061485 -0.7061485 -0.0000000 -0.0152314
 5  -0.8529556  0.0356581  0.0356581 -0.0000000 -0.5195419
 occupations
 0.909  0.000  0.000  0.000  0.122
 0.000  0.820  0.131 -0.003 -0.002
 0.000  0.131  0.820  0.003 -0.002
 0.000 -0.003  0.003  0.908 -0.000
 0.122 -0.002 -0.002 -0.000  0.783
atom    3   spin  2
eigenvalues:  0.0636590 0.0646900 0.0744529 0.1746288 0.1904357
 eigenvectors
 1  -0.0000000 -0.0054938  0.0054938 -0.9999698 -0.0000000
 2   0.7985684  0.0422074  0.0422074 -0.0000000  0.5989370
 3   0.0511130 -0.7058349 -0.7058349 -0.0000000  0.0313316
 4  -0.0000000 -0.7070854  0.7070854  0.0077694  0.0000000
 5  -0.5997299 -0.0039549 -0.0039549 -0.0000000  0.8001830
 occupations
 0.110 -0.000 -0.000  0.000 -0.060
-0.000  0.125 -0.050 -0.001 -0.001
-0.000 -0.050  0.125  0.001 -0.001
 0.000 -0.001  0.001  0.064 -0.000
-0.060 -0.001 -0.001 -0.000  0.145
atom    4   Tr[ns(na)]=   4.8567634
atom    4   spin  1
eigenvalues:  0.7034208 0.7067622 0.9330860 0.9595722 0.9815266
 eigenvectors
 1   0.0000000  0.7143638 -0.6997745 -0.0000000 -0.0000000
 2  -0.5286738  0.0000000 -0.0000000  0.0060518  0.8488035
 3  -0.0463716 -0.0000000 -0.0000000  0.9982754 -0.0359998
 4  -0.0000000  0.6997745  0.7143638  0.0000000  0.0000000
 5  -0.8475575  0.0000000  0.0000000 -0.0583925 -0.5274814
 occupations
 0.905 -0.000 -0.000  0.003  0.123
-0.000  0.829  0.128  0.000  0.000
-0.000  0.128  0.834  0.000  0.000
 0.003  0.000  0.000  0.933  0.000
 0.123  0.000  0.000  0.000  0.784
atom    4   spin  2
eigenvalues:  0.0651946 0.0667741 0.0737118 0.1750682 0.1916469
 eigenvectors
 1  -0.6076562 -0.0000000 -0.0000000  0.6563922 -0.4471054
 2  -0.5263578  0.0000000  0.0000000 -0.7544140 -0.3921824
 3  -0.0000000 -0.7096618 -0.7045425 -0.0000000  0.0000000
 4  -0.0000000 -0.7045425  0.7096618 -0.0000000  0.0000000
 5  -0.5947280  0.0000000  0.0000000 -0.0029747  0.8039215
 occupations
 0.110 -0.000 -0.000  0.001 -0.060
-0.000  0.124 -0.051  0.000  0.000
-0.000 -0.051  0.125 -0.000  0.000
 0.001  0.000 -0.000  0.066  0.000
-0.060  0.000  0.000  0.000  0.147
atom    5   Tr[ns(na)]=   4.5676105
atom    5   spin  1
eigenvalues:  0.6619253 0.6782977 0.8065788 0.8924925 0.9683635
 eigenvectors
 1  -0.0746578 -0.7012685  0.7024080 -0.0095301  0.0958168
 2  -0.5025910  0.0857432 -0.0845633  0.0024489  0.8560920
 3  -0.0060787 -0.0956563 -0.0820160  0.9919990 -0.0049271
 4   0.0066557 -0.7012020 -0.7017671 -0.1255692  0.0051773
 5  -0.8612475  0.0060097 -0.0163852 -0.0085749 -0.5078136
 occupations
 0.893 -0.003  0.004  0.001  0.127
-0.003  0.777  0.114  0.007 -0.001
 0.004  0.114  0.777  0.009  0.001
 0.001  0.007  0.009  0.808  0.001
 0.127 -0.001  0.001  0.001  0.753
atom    5   spin  2
eigenvalues:  0.0631638 0.0633465 0.0726557 0.1706981 0.1900887
 eigenvectors
 1   0.5072462 -0.0719701 -0.0713401 -0.7671925  0.3792727
 2   0.6213587  0.0710430  0.0659125  0.6260002  0.4611351
 3   0.0085482 -0.6995699 -0.7006817  0.1397467  0.0067015
 4  -0.0689888 -0.7023089  0.7018590  0.0029056  0.0968931
 5  -0.5931122  0.0844833 -0.0836970  0.0013644  0.7962873
 occupations
 0.108 -0.001  0.001 -0.000 -0.061
-0.001  0.122 -0.049 -0.001  0.001
 0.001 -0.049  0.122 -0.001 -0.001
-0.000 -0.001 -0.001  0.063  0.000
-0.061  0.001 -0.001  0.000  0.145
atom    6   Tr[ns(na)]=   4.5676105
atom    6   spin  1
eigenvalues:  0.6619253 0.6782977 0.8065788 0.8924925 0.9683635
 eigenvectors
 1  -0.0746578  0.7012685 -0.7024080 -0.0095301  0.0958168
 2  -0.5025910 -0.0857432  0.0845633  0.0024489  0.8560920
 3   0.0060787 -0.0956563 -0.0820160 -0.9919990  0.0049271
 4   0.0066557  0.7012020  0.7017671 -0.1255692  0.0051773
 5   0.8612475  0.0060097 -0.0163852  0.0085749  0.5078136
 occupations
 0.893  0.003 -0.004  0.001  0.127
 0.003  0.777  0.114 -0.007  0.001
-0.004  0.114  0.777 -0.009 -0.001
 0.001 -0.007 -0.009  0.808  0.001
 0.127  0.001 -0.001  0.001  0.753
atom    6   spin  2
eigenvalues:  0.0631638 0.0633465 0.0726557 0.1706981 0.1900887
 eigenvectors
 1   0.5072462  0.0719701  0.0713401 -0.7671925  0.3792727
 2   0.6213587 -0.0710430 -0.0659125  0.6260002  0.4611351
 3   0.0085482  0.6995699  0.7006817  0.1397467  0.0067015
 4  -0.0689888  0.7023089 -0.7018590  0.0029056  0.0968931
 5  -0.5931122 -0.0844833  0.0836970  0.0013644  0.7962873
 occupations
 0.108  0.001 -0.001 -0.000 -0.061
 0.001  0.122 -0.049  0.001 -0.001
-0.001 -0.049  0.122  0.001  0.001
-0.000  0.001  0.001  0.063  0.000
-0.061 -0.001  0.001  0.000  0.145
atom    7   Tr[ns(na)]=   4.8567634
atom    7   spin  1
eigenvalues:  0.7034208 0.7067622 0.9330860 0.9595722 0.9815266
 eigenvectors
 1   0.0000000  0.6997745 -0.7143638 -0.0000000 -0.0000000
 2  -0.5286738  0.0000000 -0.0000000 -0.0060518  0.8488035
 3  -0.0463716  0.0000000  0.0000000 -0.9982754 -0.0359998
 4   0.0000000  0.7143638  0.6997745  0.0000000  0.0000000
 5   0.8475575 -0.0000000 -0.0000000 -0.0583925  0.5274814
 occupations
 0.905 -0.000 -0.000 -0.003  0.123
-0.000  0.834  0.128  0.000  0.000
-0.000  0.128  0.829  0.000  0.000
-0.003  0.000  0.000  0.933 -0.000
 0.123  0.000  0.000 -0.000  0.784
atom    7   spin  2
eigenvalues:  0.0651946 0.0667741 0.0737118 0.1750682 0.1916469
 eigenvectors
 1  -0.6076562  0.0000000  0.0000000 -0.6563922 -0.4471054
 2   0.5263578  0.0000000  0.0000000 -0.7544140  0.3921824
 3   0.0000000 -0.7045425 -0.7096618 -0.0000000  0.0000000
 4  -0.0000000 -0.7096618  0.7045425 -0.0000000  0.0000000
 5  -0.5947280  0.0000000  0.0000000  0.0029747  0.8039215
 occupations
 0.110 -0.000 -0.000 -0.001 -0.060
-0.000  0.125 -0.051  0.000  0.000
-0.000 -0.051  0.124 -0.000  0.000
-0.001  0.000 -0.000  0.066 -0.000
-0.060  0.000  0.000 -0.000  0.147
atom    8   Tr[ns(na)]=   4.5676105
atom    8   spin  1
eigenvalues:  0.6619253 0.6782977 0.8065788 0.8924925 0.9683635
 eigenvectors
 1  -0.0746578  0.7024080 -0.7012685  0.0095301  0.0958168
 2  -0.5025910 -0.0845633  0.0857432 -0.0024489  0.8560920
 3  -0.0060787 -0.0820160 -0.0956563 -0.9919990 -0.0049271
 4   0.0066557 -0.7017671 -0.7012020  0.1255692  0.0051773
 5  -0.8612475 -0.0163852  0.0060097  0.0085749 -0.5078136
 occupations
 0.893  0.004 -0.003 -0.001  0.127
 0.004  0.777  0.114 -0.009  0.001
-0.003  0.114  0.777 -0.007 -0.001
-0.001 -0.009 -0.007  0.808 -0.001
 0.127  0.001 -0.001 -0.001  0.753
atom    8   spin  2
eigenvalues:  0.0631638 0.0633465 0.0726557 0.1706981 0.1900887
 eigenvectors
 1   0.5072462 -0.0713401 -0.0719701  0.7671925  0.3792727
 2   0.6213587  0.0659125  0.0710430 -0.6260002  0.4611351
 3   0.0085482 -0.7006817 -0.6995699 -0.1397467  0.0067015
 4  -0.0689888  0.7018590 -0.7023089 -0.0029056  0.0968931
 5  -0.5931122 -0.0836970  0.0844833 -0.0013644  0.7962873
 occupations
 0.108  0.001 -0.001  0.000 -0.061
 0.001  0.122 -0.049  0.001 -0.001
-0.001 -0.049  0.122  0.001  0.001
 0.000  0.001  0.001  0.063 -0.000
-0.061 -0.001  0.001 -0.000  0.145
atom    9   Tr[ns(na)]=   4.5676105
atom    9   spin  1
eigenvalues:  0.6619253 0.6782977 0.8065788 0.8924925 0.9683635
 eigenvectors
 1  -0.0746578 -0.7024080  0.7012685  0.0095301  0.0958168
 2  -0.5025910  0.0845633 -0.0857432 -0.0024489  0.8560920
 3   0.0060787 -0.0820160 -0.0956563  0.9919990  0.0049271
 4   0.0066557  0.7017671  0.7012020  0.1255692  0.0051773
 5   0.8612475 -0.0163852  0.0060097 -0.0085749  0.5078136
 occupations
 0.893 -0.004  0.003 -0.001  0.127
-0.004  0.777  0.114  0.009 -0.001
 0.003  0.114  0.777  0.007  0.001
-0.001  0.009  0.007  0.808 -0.001
 0.127 -0.001  0.001 -0.001  0.753
atom    9   spin  2
eigenvalues:  0.0631638 0.0633465 0.0726557 0.1706981 0.1900887
 eigenvectors
 1   0.5072462  0.0713401  0.0719701  0.7671925  0.3792727
 2   0.6213587 -0.0659125 -0.0710430 -0.6260002  0.4611351
 3   0.0085482  0.7006817  0.6995699 -0.1397467  0.0067015
 4  -0.0689888 -0.7018590  0.7023089 -0.0029056  0.0968931
 5  -0.5931122  0.0836970 -0.0844833 -0.0013644  0.7962873
 occupations
 0.108 -0.001  0.001  0.000 -0.061
-0.001  0.122 -0.049 -0.001  0.001
 0.001 -0.049  0.122 -0.001 -0.001
 0.000 -0.001 -0.001  0.063 -0.000
-0.061  0.001 -0.001 -0.000  0.145
atom   10   Tr[ns(na)]=   4.5931262
atom   10   spin  1
eigenvalues:  0.6749408 0.6832333 0.8248598 0.8738800 0.9731117
 eigenvectors
 1   0.0000000  0.7071068 -0.7071068 -0.0000000 -0.0000000
 2  -0.5024338  0.0000000 -0.0000000  0.0000000  0.8646157
 3  -0.0000000  0.0000000  0.0000000 -1.0000000  0.0000000
 4  -0.0000000  0.7071068  0.7071068  0.0000000  0.0000000
 5   0.8646157 -0.0000000 -0.0000000  0.0000000  0.5024338
 occupations
 0.900 -0.000 -0.000  0.000  0.126
-0.000  0.774  0.099  0.000  0.000
-0.000  0.099  0.774  0.000  0.000
 0.000  0.000  0.000  0.825 -0.000
 0.126  0.000  0.000 -0.000  0.756
atom   10   spin  2
eigenvalues:  0.0619099 0.0651581 0.0718724 0.1757424 0.1884177
 eigenvectors
 1   0.0000000  0.0000000  0.0000000 -1.0000000  0.0000000
 2   0.8006832  0.0000000  0.0000000  0.0000000  0.5990880
 3  -0.0000000 -0.7071068 -0.7071068 -0.0000000  0.0000000
 4   0.0000000  0.7071068 -0.7071068  0.0000000 -0.0000000
 5  -0.5990880  0.0000000 -0.0000000 -0.0000000  0.8006832
 occupations
 0.109 -0.000 -0.000  0.000 -0.059
-0.000  0.124 -0.052  0.000  0.000
-0.000 -0.052  0.124 -0.000  0.000
 0.000  0.000 -0.000  0.062 -0.000
-0.059  0.000  0.000 -0.000  0.144
atom   11   Tr[ns(na)]=   4.4579344
atom   11   spin  1
eigenvalues:  0.6544491 0.6798409 0.7682140 0.8325038 0.9670760
 eigenvectors
 1   0.0000000  0.7071058 -0.7071058 -0.0016621 -0.0000000
 2  -0.5007191  0.0222570  0.0222570  0.0000000  0.8650374
 3   0.0000000  0.0011753 -0.0011753  0.9999986 -0.0000000
 4  -0.0180590 -0.7067539 -0.7067539 -0.0000000  0.0259156
 5   0.8654215 -0.0018705 -0.0018705  0.0000000  0.5010376
 occupations
 0.895  0.001  0.001  0.000  0.124
 0.001  0.743  0.089  0.000 -0.003
 0.001  0.089  0.743 -0.000 -0.003
 0.000  0.000 -0.000  0.768 -0.000
 0.124 -0.003 -0.003 -0.000  0.752
atom   11   spin  2
eigenvalues:  0.0595219 0.0640855 0.0710200 0.1729133 0.1883099
 eigenvectors
 1   0.0000000 -0.0077087  0.0077087 -0.9999406 -0.0000000
 2   0.7987425 -0.0288156 -0.0288156  0.0000000  0.6002914
 3  -0.0262120 -0.7064798 -0.7064798 -0.0000000 -0.0329483
 4  -0.0000000 -0.7070648  0.7070648  0.0109018  0.0000000
 5  -0.6011018 -0.0074828 -0.0074828 -0.0000000  0.7991024
 occupations
 0.109  0.001  0.001  0.000 -0.060
 0.001  0.122 -0.051 -0.001 -0.001
 0.001 -0.051  0.122  0.001 -0.001
 0.000 -0.001  0.001  0.060 -0.000
-0.060 -0.001 -0.001 -0.000  0.143
atom   12   Tr[ns(na)]=   4.4579344
atom   12   spin  1
eigenvalues:  0.6544491 0.6798409 0.7682140 0.8325038 0.9670760
 eigenvectors
 1   0.0000000  0.7071058 -0.7071058  0.0016621 -0.0000000
 2  -0.5007191 -0.0222570 -0.0222570  0.0000000  0.8650374
 3   0.0000000 -0.0011753  0.0011753  0.9999986 -0.0000000
 4   0.0180590 -0.7067539 -0.7067539 -0.0000000 -0.0259156
 5   0.8654215  0.0018705  0.0018705  0.0000000  0.5010376
 occupations
 0.895 -0.001 -0.001  0.000  0.124
-0.001  0.743  0.089 -0.000  0.003
-0.001  0.089  0.743  0.000  0.003
 0.000 -0.000  0.000  0.768 -0.000
 0.124  0.003  0.003 -0.000  0.752
atom   12   spin  2
eigenvalues:  0.0595219 0.0640855 0.0710200 0.1729133 0.1883099
 eigenvectors
 1   0.0000000  0.0077087 -0.0077087 -0.9999406 -0.0000000
 2   0.7987425  0.0288156  0.0288156  0.0000000  0.6002914
 3   0.0262120 -0.7064798 -0.7064798 -0.0000000  0.0329483
 4  -0.0000000 -0.7070648  0.7070648 -0.0109018  0.0000000
 5  -0.6011018  0.0074828  0.0074828 -0.0000000  0.7991024
 occupations
 0.109 -0.001 -0.001  0.000 -0.060
-0.001  0.122 -0.051  0.001  0.001
-0.001 -0.051  0.122 -0.001  0.001
 0.000  0.001 -0.001  0.060 -0.000
-0.060  0.001  0.001 -0.000  0.143
atom   13   Tr[ns(na)]=   5.4014525
atom   13   spin  1
eigenvalues:  0.8799589 0.9698103 0.9912498 0.9922687 0.9938216
 eigenvectors
 1   0.5037470  0.2549505  0.2549505  0.0000000  0.7850092
 2   0.2364466 -0.6587252 -0.6587252  0.0000000  0.2761437
 3  -0.0000000  0.7052447 -0.7052447  0.0725243  0.0000000
 4  -0.0000000 -0.0512825  0.0512825  0.9973666  0.0000000
 5  -0.8308622 -0.0328849 -0.0328849 -0.0000000  0.5545315
 occupations
 0.964 -0.011 -0.011  0.000 -0.047
-0.011  0.975 -0.017 -0.000 -0.018
-0.011 -0.017  0.975  0.000 -0.018
 0.000 -0.000  0.000  0.992 -0.000
-0.047 -0.018 -0.018 -0.000  0.922
atom   13   spin  2
eigenvalues:  0.0647612 0.0672628 0.0785613 0.1641766 0.1995814
 eigenvectors
 1   0.8037831 -0.0000610 -0.0000610 -0.0000000 -0.5949225
 2   0.0000000 -0.2292898  0.2292898  0.9459664 -0.0000000
 3   0.0000000  0.6688992 -0.6688992  0.3242647 -0.0000000
 4   0.1954683 -0.6678231 -0.6678231 -0.0000000  0.2642287
 5   0.5618940  0.2324055  0.2324055 -0.0000000  0.7591116
 occupations
 0.111  0.005  0.005  0.000  0.063
 0.005  0.123  0.045  0.002  0.006
 0.005  0.045  0.123 -0.002  0.006
 0.000  0.002 -0.002  0.068 -0.000
 0.063  0.006  0.006 -0.000  0.149
atom   14   Tr[ns(na)]=   4.6991778
atom   14   spin  1
eigenvalues:  0.6847007 0.6858383 0.8516146 0.9469461 0.9645410
 eigenvectors
 1   0.5259604 -0.0000000 -0.0000000  0.0000000  0.8505091
 2  -0.0000000 -0.7071068 -0.7071068  0.0000000 -0.0000000
 3   0.0000000  0.0000000 -0.0000000 -1.0000000 -0.0000000
 4   0.0000000  0.7071068 -0.7071068  0.0000000 -0.0000000
 5  -0.8505091  0.0000000 -0.0000000 -0.0000000  0.5259604
 occupations
 0.887 -0.000 -0.000  0.000 -0.125
-0.000  0.816 -0.131  0.000  0.000
-0.000 -0.131  0.816  0.000  0.000
 0.000  0.000  0.000  0.852 -0.000
-0.125  0.000  0.000 -0.000  0.762
atom   14   spin  2
eigenvalues:  0.0630015 0.0641027 0.0741784 0.1734361 0.1908184
 eigenvectors
 1  -0.8005385 -0.0000000  0.0000000  0.0000000  0.5992814
 2   0.0000000 -0.0000000  0.0000000  1.0000000 -0.0000000
 3  -0.0000000  0.7071068 -0.7071068  0.0000000  0.0000000
 4   0.0000000 -0.7071068 -0.7071068 -0.0000000  0.0000000
 5   0.5992814  0.0000000  0.0000000 -0.0000000  0.8005385
 occupations
 0.109 -0.000 -0.000  0.000  0.061
-0.000  0.124  0.050  0.000  0.000
-0.000  0.050  0.124  0.000  0.000
 0.000  0.000  0.000  0.064 -0.000
 0.061  0.000  0.000 -0.000  0.145
atom   15   Tr[ns(na)]=   5.4014525
atom   15   spin  1
eigenvalues:  0.8799589 0.9698103 0.9912498 0.9922687 0.9938216
 eigenvectors
 1   0.5037470 -0.2549505 -0.2549505  0.0000000  0.7850092
 2  -0.2364466 -0.6587252 -0.6587252  0.0000000 -0.2761437
 3  -0.0000000 -0.7052447  0.7052447  0.0725243  0.0000000
 4   0.0000000 -0.0512825  0.0512825 -0.9973666 -0.0000000
 5  -0.8308622  0.0328849  0.0328849 -0.0000000  0.5545315
 occupations
 0.964  0.011  0.011  0.000 -0.047
 0.011  0.975 -0.017  0.000  0.018
 0.011 -0.017  0.975 -0.000  0.018
 0.000  0.000 -0.000  0.992 -0.000
-0.047  0.018  0.018 -0.000  0.922
atom   15   spin  2
eigenvalues:  0.0647612 0.0672628 0.0785613 0.1641766 0.1995814
 eigenvectors
 1  -0.8037831 -0.0000610 -0.0000610  0.0000000  0.5949225
 2   0.0000000  0.2292898 -0.2292898  0.9459664 -0.0000000
 3  -0.0000000  0.6688992 -0.6688992 -0.3242647  0.0000000
 4   0.1954683  0.6678231  0.6678231  0.0000000  0.2642287
 5   0.5618940 -0.2324055 -0.2324055 -0.0000000  0.7591116
 occupations
 0.111 -0.005 -0.005  0.000  0.063
-0.005  0.123  0.045 -0.002 -0.006
-0.005  0.045  0.123  0.002 -0.006
 0.000 -0.002  0.002  0.068 -0.000
 0.063 -0.006 -0.006 -0.000  0.149
atom   16   Tr[ns(na)]=   4.7105854
atom   16   spin  1
eigenvalues:  0.6708823 0.6965793 0.8775965 0.9182544 0.9803726
 eigenvectors
 1  -0.0195931 -0.7095457 -0.7037725  0.0019867 -0.0293496
 2   0.5129036 -0.0415869 -0.0081409 -0.0133288  0.8572961
 3   0.0016087 -0.1276488  0.1310353  0.9830794  0.0093741
 4   0.0371972  0.6914306 -0.6979352  0.1826753  0.0074990
 5  -0.8574146  0.0210938 -0.0188204  0.0017508  0.5138462
 occupations
 0.906  0.000 -0.001  0.001 -0.125
 0.000  0.793 -0.123  0.005  0.003
-0.001 -0.123  0.795 -0.005 -0.004
 0.001  0.005 -0.005  0.879  0.002
-0.125  0.003 -0.004  0.002  0.772
atom   16   spin  2
eigenvalues:  0.0637480 0.0654984 0.0728573 0.1749766 0.1898200
 eigenvectors
 1   0.1870925 -0.0043863 -0.0016569 -0.9727458 -0.1368938
 2  -0.7791240 -0.0124326  0.0107275 -0.2317509  0.5822265
 3   0.0148907 -0.7087057  0.7052991  0.0056936 -0.0059357
 4   0.0193637  0.7050970  0.7083492 -0.0043469  0.0261869
 5   0.5978005 -0.0200168 -0.0260131  0.0023924  0.8009691
 occupations
 0.110 -0.000 -0.000  0.000  0.060
-0.000  0.124  0.051 -0.000  0.000
-0.000  0.051  0.124 -0.000 -0.001
 0.000 -0.000 -0.000  0.064 -0.000
 0.060  0.000 -0.001 -0.000  0.145
atom   17   Tr[ns(na)]=   4.4715377
atom   17   spin  1
eigenvalues:  0.6475188 0.6733996 0.7703236 0.8482247 0.9692546
 eigenvectors
 1  -0.0000000  0.7027204  0.7114661 -0.0000000 -0.0000000
 2   0.5019589  0.0000000  0.0000000 -0.0005322  0.8648913
 3   0.0043745  0.0000000  0.0000000  0.9999886 -0.0019236
 4   0.0000000  0.7114661 -0.7027204  0.0000000  0.0000000
 5   0.8648804 -0.0000000 -0.0000000 -0.0047490 -0.5019555
 occupations
 0.895 -0.000 -0.000 -0.001 -0.128
-0.000  0.749 -0.100  0.000  0.000
-0.000 -0.100  0.747  0.000  0.000
-0.001  0.000  0.000  0.770  0.001
-0.128  0.000  0.000  0.001  0.748
atom   17   spin  2
eigenvalues:  0.0618079 0.0641821 0.0734070 0.1741870 0.1892324
 eigenvectors
 1   0.1829184  0.0000000 -0.0000000 -0.9734970 -0.1372754
 2  -0.7795239 -0.0000000 -0.0000000 -0.2286997  0.5831285
 3  -0.0000000  0.7086809 -0.7055292  0.0000000  0.0000000
 4   0.0000000 -0.7055292 -0.7086809 -0.0000000  0.0000000
 5   0.5990687  0.0000000  0.0000000 -0.0003445  0.8006976
 occupations
 0.109 -0.000 -0.000  0.000  0.060
-0.000  0.124  0.050  0.000  0.000
-0.000  0.050  0.124  0.000  0.000
 0.000  0.000  0.000  0.062 -0.000
 0.060  0.000  0.000 -0.000  0.144
atom   18   Tr[ns(na)]=   4.7105854
atom   18   spin  1
eigenvalues:  0.6708823 0.6965793 0.8775965 0.9182544 0.9803726
 eigenvectors
 1  -0.0195931  0.7095457  0.7037725  0.0019867 -0.0293496
 2   0.5129036  0.0415869  0.0081409 -0.0133288  0.8572961
 3   0.0016087  0.1276488 -0.1310353  0.9830794  0.0093741
 4   0.0371972 -0.6914306  0.6979352  0.1826753  0.0074990
 5  -0.8574146 -0.0210938  0.0188204  0.0017508  0.5138462
 occupations
 0.906 -0.000  0.001  0.001 -0.125
-0.000  0.793 -0.123 -0.005 -0.003
 0.001 -0.123  0.795  0.005  0.004
 0.001 -0.005  0.005  0.879  0.002
-0.125 -0.003  0.004  0.002  0.772
atom   18   spin  2
eigenvalues:  0.0637480 0.0654984 0.0728573 0.1749766 0.1898200
 eigenvectors
 1  -0.1870925 -0.0043863 -0.0016569  0.9727458  0.1368938
 2   0.7791240 -0.0124326  0.0107275  0.2317509 -0.5822265
 3   0.0148907  0.7087057 -0.7052991  0.0056936 -0.0059357
 4   0.0193637 -0.7050970 -0.7083492 -0.0043469  0.0261869
 5   0.5978005  0.0200168  0.0260131  0.0023924  0.8009691
 occupations
 0.110  0.000  0.000  0.000  0.060
 0.000  0.124  0.051  0.000 -0.000
 0.000  0.051  0.124  0.000  0.001
 0.000  0.000  0.000  0.064 -0.000
 0.060 -0.000  0.001 -0.000  0.145
atom   19   Tr[ns(na)]=   4.7105854
atom   19   spin  1
eigenvalues:  0.6708823 0.6965793 0.8775965 0.9182544 0.9803726
 eigenvectors
 1  -0.0195931 -0.7037725 -0.7095457 -0.0019867 -0.0293496
 2   0.5129036 -0.0081409 -0.0415869  0.0133288  0.8572961
 3   0.0016087  0.1310353 -0.1276488 -0.9830794  0.0093741
 4   0.0371972 -0.6979352  0.6914306 -0.1826753  0.0074990
 5  -0.8574146 -0.0188204  0.0210938 -0.0017508  0.5138462
 occupations
 0.906 -0.001  0.000 -0.001 -0.125
-0.001  0.795 -0.123  0.005 -0.004
 0.000 -0.123  0.793 -0.005  0.003
-0.001  0.005 -0.005  0.879 -0.002
-0.125 -0.004  0.003 -0.002  0.772
atom   19   spin  2
eigenvalues:  0.0637480 0.0654984 0.0728573 0.1749766 0.1898200
 eigenvectors
 1   0.1870925 -0.0016569 -0.0043863  0.9727458 -0.1368938
 2   0.7791240 -0.0107275  0.0124326 -0.2317509 -0.5822265
 3  -0.0148907 -0.7052991  0.7087057  0.0056936  0.0059357
 4   0.0193637  0.7083492  0.7050970  0.0043469  0.0261869
 5   0.5978005 -0.0260131 -0.0200168 -0.0023924  0.8009691
 occupations
 0.110 -0.000 -0.000 -0.000  0.060
-0.000  0.124  0.051  0.000 -0.001
-0.000  0.051  0.124  0.000  0.000
-0.000  0.000  0.000  0.064  0.000
 0.060 -0.001  0.000  0.000  0.145
atom   20   Tr[ns(na)]=   4.4715377
atom   20   spin  1
eigenvalues:  0.6475188 0.6733996 0.7703236 0.8482247 0.9692546
 eigenvectors
 1  -0.0000000  0.7114661  0.7027204 -0.0000000 -0.0000000
 2   0.5019589  0.0000000  0.0000000  0.0005322  0.8648913
 3   0.0043745  0.0000000 -0.0000000 -0.9999886 -0.0019236
 4   0.0000000  0.7027204 -0.7114661  0.0000000  0.0000000
 5  -0.8648804  0.0000000  0.0000000 -0.0047490  0.5019555
 occupations
 0.895 -0.000 -0.000  0.001 -0.128
-0.000  0.747 -0.100  0.000  0.000
-0.000 -0.100  0.749  0.000  0.000
 0.001  0.000  0.000  0.770 -0.001
-0.128  0.000  0.000 -0.001  0.748
atom   20   spin  2
eigenvalues:  0.0618079 0.0641821 0.0734070 0.1741870 0.1892324
 eigenvectors
 1   0.1829184 -0.0000000  0.0000000  0.9734970 -0.1372754
 2   0.7795239  0.0000000 -0.0000000 -0.2286997 -0.5831285
 3  -0.0000000  0.7055292 -0.7086809  0.0000000  0.0000000
 4   0.0000000 -0.7086809 -0.7055292 -0.0000000  0.0000000
 5   0.5990687  0.0000000  0.0000000  0.0003445  0.8006976
 occupations
 0.109 -0.000 -0.000 -0.000  0.060
-0.000  0.124  0.050  0.000  0.000
-0.000  0.050  0.124  0.000  0.000
-0.000  0.000  0.000  0.062  0.000
 0.060  0.000  0.000  0.000  0.144
atom   21   Tr[ns(na)]=   4.7105854
atom   21   spin  1
eigenvalues:  0.6708823 0.6965793 0.8775965 0.9182544 0.9803726
 eigenvectors
 1  -0.0195931  0.7037725  0.7095457 -0.0019867 -0.0293496
 2   0.5129036  0.0081409  0.0415869  0.0133288  0.8572961
 3   0.0016087 -0.1310353  0.1276488 -0.9830794  0.0093741
 4   0.0371972  0.6979352 -0.6914306 -0.1826753  0.0074990
 5  -0.8574146  0.0188204 -0.0210938 -0.0017508  0.5138462
 occupations
 0.906  0.001 -0.000 -0.001 -0.125
 0.001  0.795 -0.123 -0.005  0.004
-0.000 -0.123  0.793  0.005 -0.003
-0.001 -0.005  0.005  0.879 -0.002
-0.125  0.004 -0.003 -0.002  0.772
atom   21   spin  2
eigenvalues:  0.0637480 0.0654984 0.0728573 0.1749766 0.1898200
 eigenvectors
 1  -0.1870925 -0.0016569 -0.0043863 -0.9727458  0.1368938
 2  -0.7791240 -0.0107275  0.0124326  0.2317509  0.5822265
 3  -0.0148907  0.7052991 -0.7087057  0.0056936  0.0059357
 4   0.0193637 -0.7083492 -0.7050970  0.0043469  0.0261869
 5   0.5978005  0.0260131  0.0200168 -0.0023924  0.8009691
 occupations
 0.110  0.000  0.000 -0.000  0.060
 0.000  0.124  0.051 -0.000  0.001
 0.000  0.051  0.124 -0.000 -0.000
-0.000 -0.000 -0.000  0.064  0.000
 0.060  0.001 -0.000  0.000  0.145
atom   22   Tr[ns(na)]=   4.4524542
atom   22   spin  1
eigenvalues:  0.6667061 0.6743107 0.7645600 0.8496818 0.9391969
 eigenvectors
 1   0.2097025 -0.6299031 -0.6299031  0.0000000  0.4030745
 2  -0.4498859 -0.3209690 -0.3209690 -0.0000000 -0.7691297
 3   0.0000000  0.0516436 -0.0516436 -0.9973294  0.0000000
 4  -0.0000000  0.7052184 -0.7052184  0.0730351  0.0000000
 5  -0.8681172  0.0141769  0.0141769 -0.0000000  0.4959541
 occupations
 0.874 -0.002 -0.002  0.000 -0.115
-0.002  0.759 -0.090  0.004  0.004
-0.002 -0.090  0.759 -0.004  0.004
 0.000  0.004 -0.004  0.765 -0.000
-0.115  0.004  0.004 -0.000  0.738
atom   22   spin  2
eigenvalues:  0.0633391 0.0636057 0.0701908 0.1712563 0.1896068
 eigenvectors
 1  -0.0000000  0.0653443 -0.0653443  0.9957210  0.0000000
 2  -0.7996902  0.0045580  0.0045580 -0.0000000  0.6003783
 3  -0.0000000  0.7040810 -0.7040810 -0.0924108  0.0000000
 4   0.0674356  0.7032740  0.7032740  0.0000000  0.0791442
 5   0.5966138 -0.0733819 -0.0733819 -0.0000000  0.7957903
 occupations
 0.109 -0.000 -0.000  0.000  0.060
-0.000  0.121  0.051 -0.000 -0.001
-0.000  0.051  0.121  0.000 -0.001
 0.000 -0.000  0.000  0.063 -0.000
 0.060 -0.001 -0.001 -0.000  0.144
atom   23   Tr[ns(na)]=   4.3828255
atom   23   spin  1
eigenvalues:  0.6482050 0.6639013 0.7571909 0.8251900 0.9302867
 eigenvectors
 1   0.0000000 -0.7071068 -0.7071068  0.0000000  0.0000000
 2   0.4879657  0.0000000  0.0000000  0.0000000  0.8728628
 3  -0.0000000 -0.0000000  0.0000000  1.0000000 -0.0000000
 4  -0.0000000 -0.7071068  0.7071068 -0.0000000 -0.0000000
 5  -0.8728628  0.0000000  0.0000000 -0.0000000  0.4879657
 occupations
 0.867 -0.000 -0.000  0.000 -0.113
-0.000  0.737 -0.088  0.000  0.000
-0.000 -0.088  0.737  0.000  0.000
 0.000  0.000  0.000  0.757 -0.000
-0.113  0.000  0.000 -0.000  0.727
atom   23   spin  2
eigenvalues:  0.0616682 0.0626859 0.0717796 0.1722797 0.1896381
 eigenvectors
 1  -0.0000000 -0.0000000  0.0000000  1.0000000  0.0000000
 2  -0.7997827 -0.0000000  0.0000000 -0.0000000  0.6002897
 3  -0.0000000  0.7071068 -0.7071068  0.0000000  0.0000000
 4   0.0000000 -0.7071068 -0.7071068 -0.0000000  0.0000000
 5   0.6002897  0.0000000  0.0000000 -0.0000000  0.7997827
 occupations
 0.108 -0.000 -0.000  0.000  0.061
-0.000  0.122  0.050  0.000  0.000
-0.000  0.050  0.122  0.000  0.000
 0.000  0.000  0.000  0.062 -0.000
 0.061  0.000  0.000 -0.000  0.144
atom   24   Tr[ns(na)]=   4.4524542
atom   24   spin  1
eigenvalues:  0.6667061 0.6743107 0.7645600 0.8496818 0.9391969
 eigenvectors
 1  -0.2097025 -0.6299031 -0.6299031  0.0000000 -0.4030745
 2   0.4498859 -0.3209690 -0.3209690  0.0000000  0.7691297
 3  -0.0000000  0.0516436 -0.0516436  0.9973294 -0.0000000
 4  -0.0000000 -0.7052184  0.7052184  0.0730351  0.0000000
 5   0.8681172  0.0141769  0.0141769  0.0000000 -0.4959541
 occupations
 0.874  0.002  0.002  0.000 -0.115
 0.002  0.759 -0.090 -0.004 -0.004
 0.002 -0.090  0.759  0.004 -0.004
 0.000 -0.004  0.004  0.765 -0.000
-0.115 -0.004 -0.004 -0.000  0.738
atom   24   spin  2
eigenvalues:  0.0633391 0.0636057 0.0701908 0.1712563 0.1896068
 eigenvectors
 1  -0.0000000 -0.0653443  0.0653443  0.9957210  0.0000000
 2   0.7996902  0.0045580  0.0045580  0.0000000 -0.6003783
 3   0.0000000  0.7040810 -0.7040810  0.0924108 -0.0000000
 4   0.0674356 -0.7032740 -0.7032740 -0.0000000  0.0791442
 5   0.5966138  0.0733819  0.0733819 -0.0000000  0.7957903
 occupations
 0.109  0.000  0.000  0.000  0.060
 0.000  0.121  0.051  0.000  0.001
 0.000  0.051  0.121 -0.000  0.001
 0.000  0.000 -0.000  0.063 -0.000
 0.060  0.001  0.001 -0.000  0.144
nsum = 113.1500506
 exit write_ns

     negative rho (up, down):  0.000E+00 0.914E-03

     total cpu time spent up to now is    183.28 secs

     total energy              =   -5689.88376852 Ry
     Harris-Foulkes estimate   =   -5603.50894340 Ry
     estimated scf accuracy    <      83.94949094 Ry

     total magnetization       =    65.84 Bohr mag/cell
     absolute magnetization    =   109.61 Bohr mag/cell

     iteration #  2     ecut=    30.00 Ry     beta=0.30
     Davidson diagonalization with overlap
     ethr =  1.00E-02,  avg # of iterations =  2.1

     negative rho (up, down):  0.000E+00 0.171E-02

     total cpu time spent up to now is    272.27 secs

     total energy              =   -5716.09077201 Ry
     Harris-Foulkes estimate   =   -5695.40245734 Ry
     estimated scf accuracy    <      40.63706637 Ry

     total magnetization       =    49.40 Bohr mag/cell
     absolute magnetization    =   108.00 Bohr mag/cell

     iteration #  3     ecut=    30.00 Ry     beta=0.30
     Davidson diagonalization with overlap
     ethr =  6.51E-03,  avg # of iterations =  2.3

     negative rho (up, down):  0.000E+00 0.160E-02

     total cpu time spent up to now is    351.01 secs

     total energy              =   -5722.84002259 Ry
     Harris-Foulkes estimate   =   -5717.38438762 Ry
     estimated scf accuracy    <       9.22860578 Ry

     total magnetization       =    48.00 Bohr mag/cell
     absolute magnetization    =   103.64 Bohr mag/cell

     iteration #  4     ecut=    30.00 Ry     beta=0.30
     Davidson diagonalization with overlap
     ethr =  1.48E-03,  avg # of iterations =  3.8

     total cpu time spent up to now is    456.37 secs

     total energy              =   -5723.72393106 Ry
     Harris-Foulkes estimate   =   -5723.59361293 Ry
     estimated scf accuracy    <       1.37682988 Ry

     total magnetization       =    48.00 Bohr mag/cell
     absolute magnetization    =    92.67 Bohr mag/cell

     iteration #  5     ecut=    30.00 Ry     beta=0.30
     Davidson diagonalization with overlap
     ethr =  2.21E-04,  avg # of iterations =  4.3

     total cpu time spent up to now is    565.18 secs

     total energy              =   -5723.90707209 Ry
     Harris-Foulkes estimate   =   -5723.88807254 Ry
     estimated scf accuracy    <       0.33243170 Ry

     total magnetization       =    48.00 Bohr mag/cell
     absolute magnetization    =    85.15 Bohr mag/cell

     iteration #  6     ecut=    30.00 Ry     beta=0.30
     Davidson diagonalization with overlap
     ethr =  5.33E-05,  avg # of iterations =  4.2

     total cpu time spent up to now is    672.71 secs

     total energy              =   -5723.94314738 Ry
     Harris-Foulkes estimate   =   -5723.92615471 Ry
     estimated scf accuracy    <       0.18037688 Ry

     total magnetization       =    48.00 Bohr mag/cell
     absolute magnetization    =    83.24 Bohr mag/cell

     iteration #  7     ecut=    30.00 Ry     beta=0.30
     Davidson diagonalization with overlap
     ethr =  2.89E-05,  avg # of iterations =  3.9

     total cpu time spent up to now is    791.86 secs

     total energy              =   -5723.98159397 Ry
     Harris-Foulkes estimate   =   -5723.97963748 Ry
     estimated scf accuracy    <       0.03745571 Ry

     total magnetization       =    48.00 Bohr mag/cell
     absolute magnetization    =    79.69 Bohr mag/cell

     iteration #  8     ecut=    30.00 Ry     beta=0.30
     Davidson diagonalization with overlap
     ethr =  6.00E-06,  avg # of iterations =  4.3

     total cpu time spent up to now is    911.05 secs

     total energy              =   -5723.98914456 Ry
     Harris-Foulkes estimate   =   -5723.98873764 Ry
     estimated scf accuracy    <       0.00940776 Ry

     total magnetization       =    48.00 Bohr mag/cell
     absolute magnetization    =    77.95 Bohr mag/cell

     iteration #  9     ecut=    30.00 Ry     beta=0.30
     Davidson diagonalization with overlap
     ethr =  1.51E-06,  avg # of iterations =  3.1

     total cpu time spent up to now is   1001.70 secs

     total energy              =   -5723.99021271 Ry
     Harris-Foulkes estimate   =   -5723.99025383 Ry
     estimated scf accuracy    <       0.00199304 Ry

     total magnetization       =    48.00 Bohr mag/cell
     absolute magnetization    =    77.35 Bohr mag/cell

     iteration # 10     ecut=    30.00 Ry     beta=0.30
     Davidson diagonalization with overlap
     ethr =  3.19E-07,  avg # of iterations =  3.3

     total cpu time spent up to now is   1105.12 secs

     total energy              =   -5723.99092548 Ry
     Harris-Foulkes estimate   =   -5723.99061904 Ry
     estimated scf accuracy    <       0.00032630 Ry

     total magnetization       =    48.00 Bohr mag/cell
     absolute magnetization    =    77.04 Bohr mag/cell

     iteration # 11     ecut=    30.00 Ry     beta=0.30
     Davidson diagonalization with overlap
     ethr =  5.23E-08,  avg # of iterations =  2.2

     total cpu time spent up to now is   1183.82 secs

     total energy              =   -5723.99107852 Ry
     Harris-Foulkes estimate   =   -5723.99095049 Ry
     estimated scf accuracy    <       0.00008976 Ry

     total magnetization       =    48.00 Bohr mag/cell
     absolute magnetization    =    77.02 Bohr mag/cell

     iteration # 12     ecut=    30.00 Ry     beta=0.30
     Davidson diagonalization with overlap
     ethr =  1.44E-08,  avg # of iterations =  2.4

     total cpu time spent up to now is   1269.98 secs

     total energy              =   -5723.99116034 Ry
     Harris-Foulkes estimate   =   -5723.99108790 Ry
     estimated scf accuracy    <       0.00002434 Ry

     total magnetization       =    48.00 Bohr mag/cell
     absolute magnetization    =    77.02 Bohr mag/cell

     iteration # 13     ecut=    30.00 Ry     beta=0.30
     Davidson diagonalization with overlap
     ethr =  3.90E-09,  avg # of iterations =  3.0

     total cpu time spent up to now is   1382.84 secs

     total energy              =   -5723.99119979 Ry
     Harris-Foulkes estimate   =   -5723.99116855 Ry
     estimated scf accuracy    <       0.00000639 Ry

     total magnetization       =    48.00 Bohr mag/cell
     absolute magnetization    =    77.08 Bohr mag/cell

     iteration # 14     ecut=    30.00 Ry     beta=0.30
     Davidson diagonalization with overlap
     ethr =  1.02E-09,  avg # of iterations =  2.8

     total cpu time spent up to now is   1470.77 secs

     total energy              =   -5723.99121671 Ry
     Harris-Foulkes estimate   =   -5723.99120046 Ry
     estimated scf accuracy    <       0.00000131 Ry

     total magnetization       =    48.00 Bohr mag/cell
     absolute magnetization    =    77.09 Bohr mag/cell

     iteration # 15     ecut=    30.00 Ry     beta=0.30
     Davidson diagonalization with overlap
     ethr =  2.11E-10,  avg # of iterations =  3.0

     total cpu time spent up to now is   1575.42 secs

     total energy              =   -5723.99122473 Ry
     Harris-Foulkes estimate   =   -5723.99121704 Ry
     estimated scf accuracy    <       0.00000025 Ry

     total magnetization       =    48.00 Bohr mag/cell
     absolute magnetization    =    77.10 Bohr mag/cell

     iteration # 16     ecut=    30.00 Ry     beta=0.30
     Davidson diagonalization with overlap
     ethr =  3.99E-11,  avg # of iterations =  2.2

     total cpu time spent up to now is   1653.92 secs

     total energy              =   -5723.99122857 Ry
     Harris-Foulkes estimate   =   -5723.99122475 Ry
     estimated scf accuracy    <       0.00000010 Ry

     total magnetization       =    48.00 Bohr mag/cell
     absolute magnetization    =    77.10 Bohr mag/cell

     iteration # 17     ecut=    30.00 Ry     beta=0.30
     Davidson diagonalization with overlap
     ethr =  1.60E-11,  avg # of iterations =  2.1

     total cpu time spent up to now is   1739.99 secs

     total energy              =   -5723.99123048 Ry
     Harris-Foulkes estimate   =   -5723.99122859 Ry
     estimated scf accuracy    <       0.00000004 Ry

     total magnetization       =    48.00 Bohr mag/cell
     absolute magnetization    =    77.10 Bohr mag/cell

     iteration # 18     ecut=    30.00 Ry     beta=0.30
     Davidson diagonalization with overlap
     ethr =  6.16E-12,  avg # of iterations =  2.5

     total cpu time spent up to now is   1834.19 secs

     total energy              =   -5723.99123141 Ry
     Harris-Foulkes estimate   =   -5723.99123049 Ry
     estimated scf accuracy    <       0.00000001 Ry

     total magnetization       =    48.00 Bohr mag/cell
     absolute magnetization    =    77.10 Bohr mag/cell

     iteration # 19     ecut=    30.00 Ry     beta=0.30
     Davidson diagonalization with overlap
     ethr =  1.84E-12,  avg # of iterations =  3.0

     total cpu time spent up to now is   1949.73 secs

     End of self-consistent calculation
 enter write_ns
U( 1) =  3.5000      U( 2) =  0.0000      U( 3) =  0.0000
alpha( 1) =  0.0000      alpha( 2) =  0.0000      alpha( 3) =  0.0000
atom    1   Tr[ns(na)]=   5.0455794
atom    1   spin  1
eigenvalues:  0.5346222 0.5530691 0.8578673 0.9153302 0.9881121
 eigenvectors
 1  -0.5320296 -0.0000000  0.0000000  0.0000000  0.8467258
[...]
    14.0344  14.0352  14.0401  14.0504  14.0876  14.1077  14.1195  14.1225
    14.1333  14.1392  14.1551  14.1567  14.3345  14.3418  14.3451  14.3520
    14.3536  14.3601  14.3683  14.4047  14.4193  14.4257  14.4280  14.4361
    14.4404  14.4475  14.4515  14.4621  14.6354  14.6456  14.6550  14.6562
    14.7013  14.7057  14.7167  14.7186  14.7376  14.7378  14.7473  14.7807
    14.9169  14.9404  14.9814  14.9851  14.9851  14.9890  14.9915  15.0120
    15.0440  15.0453  15.0686  15.0692  15.3814  15.5300

          k =-0.5000-0.5000 0.0000 ( 12728 PWs)   bands (ev):

   -59.8816 -59.8756 -59.8750 -59.8683 -59.8631 -59.8625 -59.8611 -59.8569
   -59.8566 -59.8534 -59.8526 -59.8502 -59.8501 -59.8492 -59.8490 -59.8487
   -59.8464 -59.8448 -59.8440 -59.8403 -59.8279 -59.8220 -59.8153 -59.6609
   -31.4546 -31.4491 -31.4462 -31.4420 -31.4398 -31.4386 -31.4359 -31.4340
   -31.4317 -31.4261 -31.4251 -31.4251 -31.4240 -31.4238 -31.4223 -31.4220
   -31.4197 -31.4184 -31.4183 -31.4119 -31.3853 -31.3095 -31.3004 -31.2747
   -31.2092 -31.2044 -31.1997 -31.1981 -31.1928 -31.1920 -31.1872 -31.1846
   -31.1839 -31.1812 -31.1804 -31.1794 -31.1749 -31.1719 -31.1714 -31.1685
   -31.1676 -31.1653 -31.1632 -31.1622 -31.1619 -31.1598 -31.1343 -31.1140
   -31.0892 -31.0698 -31.0419 -31.0410 -31.0376 -31.0367 -31.0364 -31.0353
   -31.0342 -31.0340 -31.0328 -31.0327 -31.0320 -31.0263 -30.9889 -30.9553
   -30.9072 -30.9041 -30.8987 -30.8964 -30.8941 -30.8896 -30.8889 -30.8513
   -11.6015  -8.7761  -8.7672  -8.7619  -8.6661  -8.0783  -8.0658  -8.0583
    -8.0536  -8.0521  -8.0500  -8.0431  -7.9590  -7.8323  -7.8141  -7.8112
    -7.7474  -7.5251  -7.5119  -7.4868  -7.4855  -7.4846  -7.4845  -7.4837
    -7.4349  -7.3774  -7.3721  -7.3670  -7.3582  -7.3562  -7.3541  -7.3477
    -7.3377  -7.3295  -7.3231  -7.3228  -7.3205  -7.3197  -7.3154  -7.3148
    -7.2899  -7.2515  -7.2465  -7.2446  -7.2370  -7.2339  -7.2292  -7.2286
     2.1913   2.7596   3.6372   4.2324   4.2370   4.2383   4.3458   4.6990
     4.7070   4.7076   4.7134   4.7148   4.7148   4.7547   4.8518   4.9792
     4.9826   5.0014   5.1212   5.2137   5.2189   5.2208   5.2238   5.2250
     5.2296   5.2302   5.2496   5.2524   5.2534   5.2594   5.2603   5.2610
     5.3395   5.4207   5.4335   5.5240   5.5552   5.5579   5.5642   5.5643
     5.5681   5.5950   5.5960   5.6156   5.6794   5.7155   5.8044   5.8168
     5.8168   5.8220   5.8236   5.8268   5.8987   6.1115   6.1487   6.1514
     6.1540   6.1590   6.1759   6.1841   6.1848   6.2160   6.3796   6.4855
     6.4907   6.4931   6.4962   6.5179   6.5263   6.5317   6.5333   6.5353
     6.5638   6.8138   6.8650   7.0316   7.0337   7.0400   7.0403   7.0448
     7.0461   7.0464   7.0477   7.0483   7.0510   7.0511   7.0581   7.0619
     7.0822   7.0888   7.0912   7.1077   7.3558   7.3980   7.4011   7.5309
     7.5357   7.5391   7.5401   7.5408   7.5607   7.6105   7.6559   7.6583
     7.6592   7.7895   7.8125   7.8198   7.9082   8.0645   8.0688   8.0817
     8.0920   8.1038   8.1055   8.1071   8.2633   8.3209   8.4293   8.4650
     8.4689   8.4715   8.4717   8.4758   8.4759   8.4930   8.4977   8.5008
     8.5976   8.6236   8.6793   8.6883   8.7347   8.7759   8.7943   8.7955
     8.7998   8.8035   8.8119   8.8179   9.0844   9.1036   9.1359   9.1539
    13.3214  13.3258  13.3292  13.3297  13.3306  13.3330  13.3387  13.3400
    13.3410  13.3538  13.3546  13.3975  13.6561  13.6596  13.6646  13.6659
    13.8947  13.9327  13.9421  13.9455  13.9572  13.9596  13.9633  13.9721
    13.9732  13.9823  13.9833  13.9876  13.9907  13.9971  13.9972  14.0033
    14.0551  14.0621  14.0628  14.0690  14.0701  14.0795  14.1060  14.1715
    14.2668  14.2818  14.2846  14.2867  14.3759  14.3775  14.3962  14.3994
    14.4041  14.4082  14.4085  14.4244  14.5487  14.5533  14.5888  14.5901
    14.5905  14.5949  14.6024  14.6206  14.6374  14.6398  14.6648  14.6649
    14.6688  14.6717  14.6778  14.6847  14.6899  14.6953  14.7132  14.7146
    14.7177  14.7187  14.7246  14.7513  14.7529  14.7581  14.7688  14.8102
    14.9977  15.0167  15.0333  15.0367  15.4373  15.4538

          k =-0.5000-0.5000-0.5052 ( 12768 PWs)   bands (ev):

   -59.8824 -59.8759 -59.8745 -59.8685 -59.8630 -59.8625 -59.8625 -59.8577
   -59.8575 -59.8565 -59.8563 -59.8532 -59.8529 -59.8474 -59.8469 -59.8463
   -59.8456 -59.8414 -59.8407 -59.8393 -59.8296 -59.8201 -59.8150 -59.6609
   -31.4538 -31.4473 -31.4472 -31.4419 -31.4418 -31.4353 -31.4325 -31.4324
   -31.4312 -31.4299 -31.4294 -31.4281 -31.4266 -31.4257 -31.4209 -31.4194
   -31.4190 -31.4176 -31.4161 -31.4123 -31.3853 -31.3094 -31.3006 -31.2748
   -31.2038 -31.2007 -31.1970 -31.1955 -31.1924 -31.1898 -31.1889 -31.1867
   -31.1851 -31.1843 -31.1841 -31.1813 -31.1807 -31.1798 -31.1769 -31.1733
   -31.1679 -31.1639 -31.1625 -31.1600 -31.1566 -31.1542 -31.1481 -31.1338
   -31.1014 -31.0856 -31.0847 -31.0838 -31.0824 -31.0813 -31.0578 -31.0140
   -30.9932 -30.9764 -30.9477 -30.9460 -30.9435 -30.9424 -30.9420 -30.9397
   -30.9386 -30.9382 -30.9370 -30.9349 -30.9313 -30.9281 -30.9070 -30.8774
   -11.6011  -8.5742  -8.5682  -8.5583  -8.5566  -8.5528  -8.5510  -8.5460
    -8.3628  -7.7253  -7.7133  -7.6940  -7.6921  -7.6919  -7.6912  -7.6881
    -7.6671  -7.6407  -7.6208  -7.6171  -7.6154  -7.6028  -7.5992  -7.5886
    -7.5197  -7.3696  -7.3593  -7.3574  -7.3537  -7.3498  -7.3408  -7.3360
    -7.3298  -7.2977  -7.2969  -7.2846  -7.2801  -7.2782  -7.2769  -7.2735
    -7.2634  -7.2630  -7.2630  -7.2614  -7.2607  -7.2589  -7.2580  -7.2561
     2.1936   2.7454   3.6329   4.3842   4.3897   4.3965   4.3993   4.4016
     4.4029   4.4111   4.6141   4.7505   4.7836   4.8068   4.8216   5.0978
     5.1093   5.1125   5.1206   5.1680   5.1820   5.1848   5.1882   5.1977
     5.1979   5.2031   5.2046   5.2067   5.2240   5.2242   5.2864   5.3129
     5.3196   5.3237   5.3306   5.3307   5.3363   5.3533   5.3615   5.3691
     5.5402   5.5726   5.7677   5.7685   5.7731   5.7739   5.7763   5.7801
     5.7860   5.8043   5.8070   5.8150   5.8388   6.0360   6.2933   6.4288
     6.4292   6.4317   6.4320   6.4364   6.4407   6.4562   6.5101   6.5158
     6.5326   6.5416   6.5437   6.5473   6.6257   6.6724   6.7490   6.7505
     6.7696   6.7758   6.8261   6.8494   6.8555   6.8978   6.9375   6.9419
     6.9467   6.9508   7.0145   7.0512   7.0585   7.0668   7.0714   7.0744
     7.0975   7.2657   7.3642   7.3869   7.4014   7.4053   7.4085   7.4090
     7.4224   7.4227   7.4426   7.4480   7.4550   7.4669   7.4686   7.4691
     7.5992   7.7504   7.7619   7.7702   7.9233   8.1575   8.1676   8.1987
     8.2187   8.2446   8.2799   8.2841   8.3368   8.3557   8.3610   8.3983
     8.4179   8.4568   8.4579   8.5100   8.5196   8.5205   8.5206   8.5243
     8.5286   8.5333   8.5423   8.5424   8.5426   8.5534   8.5555   8.5568
     8.8114   8.9343   8.9382   8.9392   8.9408   8.9424   8.9546   8.9575
    13.3550  13.3564  13.3790  13.3799  13.5085  13.5095  13.5115  13.5149
    13.5182  13.5251  13.5255  13.5554  13.6137  13.6150  13.6316  13.6342
    13.6358  13.6395  13.6426  13.6535  13.8090  13.8178  13.8389  13.8448
    14.0581  14.0799  14.0927  14.0945  14.1039  14.1052  14.1134  14.1161
    14.1183  14.1312  14.1369  14.1396  14.1493  14.1549  14.1594  14.1616
    14.1730  14.1755  14.1760  14.1799  14.3576  14.3596  14.3669  14.3702
    14.3766  14.3862  14.4093  14.4157  14.4187  14.4189  14.4198  14.4406
    14.6277  14.6280  14.6316  14.6370  14.6407  14.6442  14.6460  14.6464
    14.6660  14.6715  14.6832  14.7126  14.7855  14.8195  14.8251  14.8293
    14.8302  14.8548  14.8624  14.8689  14.9380  15.0057  15.0345  15.0395
    15.0396  15.0409  15.0453  15.0616  15.3100  15.4303

     the Fermi energy is    10.3910 ev

!    total energy              =   -5723.99123228 Ry
     Harris-Foulkes estimate   =   -5723.99123141 Ry
     estimated scf accuracy    <          3.0E-09 Ry

     The total energy is the sum of the following terms:

     one-electron contribution =   -2466.56036236 Ry
     hartree contribution      =    1545.10162404 Ry
     xc contribution           =    -818.24861938 Ry
     ewald contribution        =   -3989.33033024 Ry
     Hubbard energy            =       5.05151347 Ry
     smearing contrib. (-TS)   =      -0.00505782 Ry

     total magnetization       =    48.00 Bohr mag/cell
     absolute magnetization    =    77.10 Bohr mag/cell

     convergence has been achieved in  19 iterations
 forces --- starting time for forces:
     forces       :      0.00s CPU      0.00s WALL (       1 calls)

     Forces acting on atoms (Ry/au):

 forces --- nonlocal contribution:
     forces       :      8.97s CPU      8.99s WALL (       2 calls)
 forces --- local contribution:
     forces       :      9.01s CPU      9.02s WALL (       3 calls)
 forces --- NLCC contribution:
     forces       :      9.01s CPU      9.02s WALL (       4 calls)
 forces --- entering force_hub:
     forces       :      9.01s CPU      9.02s WALL (       5 calls)
           1  forces --- i/o, init_us_2, calbec, s_psi:
     forces       :      9.26s CPU      9.29s WALL (       6 calls)
           1  forces --- dn/dtau:
     forces       :    119.95s CPU    120.10s WALL (       7 calls)
           2  forces --- i/o, init_us_2, calbec, s_psi:
     forces       :    120.18s CPU    120.33s WALL (       8 calls)
           2  forces --- dn/dtau:
     forces       :    230.74s CPU    231.02s WALL (       9 calls)
           3  forces --- i/o, init_us_2, calbec, s_psi:
     forces       :    230.95s CPU    231.24s WALL (      10 calls)
           3  forces --- dn/dtau:
     forces       :    341.95s CPU    342.46s WALL (      11 calls)
           4  forces --- i/o, init_us_2, calbec, s_psi:
     forces       :    342.19s CPU    342.71s WALL (      12 calls)
           4  forces --- dn/dtau:
     forces       :    453.10s CPU    453.73s WALL (      13 calls)
           5  forces --- i/o, init_us_2, calbec, s_psi:
     forces       :    453.35s CPU    453.98s WALL (      14 calls)
           5  forces --- dn/dtau:
     forces       :    564.11s CPU    564.87s WALL (      15 calls)
           6  forces --- i/o, init_us_2, calbec, s_psi:
     forces       :    564.35s CPU    565.12s WALL (      16 calls)
           6  forces --- dn/dtau:
     forces       :    675.04s CPU    675.98s WALL (      17 calls)
           7  forces --- i/o, init_us_2, calbec, s_psi:
     forces       :    675.29s CPU    676.23s WALL (      18 calls)
           7  forces --- dn/dtau:
     forces       :    786.26s CPU    787.36s WALL (      19 calls)
           8  forces --- i/o, init_us_2, calbec, s_psi:
     forces       :    786.50s CPU    787.61s WALL (      20 calls)
           8  forces --- dn/dtau:
     forces       :    897.41s CPU    898.59s WALL (      21 calls)
           9  forces --- i/o, init_us_2, calbec, s_psi:
     forces       :    897.65s CPU    898.84s WALL (      22 calls)
           9  forces --- dn/dtau:
     forces       :   1008.56s CPU   1009.91s WALL (      23 calls)
          10  forces --- i/o, init_us_2, calbec, s_psi:
     forces       :   1008.77s CPU   1010.12s WALL (      24 calls)
          10  forces --- dn/dtau:
     forces       :   1119.58s CPU   1121.03s WALL (      25 calls)
          11  forces --- i/o, init_us_2, calbec, s_psi:
     forces       :   1119.81s CPU   1121.28s WALL (      26 calls)
          11  forces --- dn/dtau:
     forces       :   1230.49s CPU   1232.06s WALL (      27 calls)
          12  forces --- i/o, init_us_2, calbec, s_psi:
     forces       :   1230.73s CPU   1232.31s WALL (      28 calls)
          12  forces --- dn/dtau:
     forces       :   1341.23s CPU   1342.91s WALL (      29 calls)
 forces --- Hubbard contribution:
     forces       :   1341.23s CPU   1342.91s WALL (      30 calls)
 forces --- ionic contribution:
     forces       :   1341.26s CPU   1342.95s WALL (      31 calls)
 forces --- SCF contribution:
     forces       :   1341.56s CPU   1343.24s WALL (      32 calls)
     atom   1 type  1   force =    -0.08120667   -0.08120667    0.00000000
     atom   2 type  1   force =    -0.00237690   -0.00237690    0.00371373
     atom   3 type  1   force =    -0.00237690   -0.00237690   -0.00371373
     atom   4 type  1   force =    -0.00470023    0.00429616    0.00000000
     atom   5 type  1   force =    -0.00174051    0.00105213    0.00172128
     atom   6 type  1   force =    -0.00174051    0.00105213   -0.00172128
     atom   7 type  1   force =     0.00429616   -0.00470023    0.00000000
     atom   8 type  1   force =     0.00105213   -0.00174051    0.00172128
     atom   9 type  1   force =     0.00105213   -0.00174051   -0.00172128
     atom  10 type  1   force =     0.00252812    0.00252812    0.00000000
     atom  11 type  1   force =     0.00040183    0.00040183   -0.00166255
     atom  12 type  1   force =     0.00040183    0.00040183    0.00166255
     atom  13 type  1   force =     0.04865635    0.04865635    0.07678804
     atom  14 type  1   force =     0.00033797    0.00033797    0.00000000
     atom  15 type  1   force =     0.04865635    0.04865635   -0.07678804
     atom  16 type  1   force =     0.00255389   -0.00288836    0.00228426
     atom  17 type  1   force =    -0.00016045    0.00090479    0.00000000
     atom  18 type  1   force =     0.00255389   -0.00288836   -0.00228426
     atom  19 type  1   force =    -0.00288836    0.00255389    0.00228426
     atom  20 type  1   force =     0.00090479   -0.00016045    0.00000000
     atom  21 type  1   force =    -0.00288836    0.00255389   -0.00228426
     atom  22 type  1   force =     0.00151778    0.00151778   -0.00063200
     atom  23 type  1   force =     0.00067595    0.00067595    0.00000000
     atom  24 type  1   force =     0.00151778    0.00151778    0.00063200
     atom  25 type  3   force =    -0.00259816   -0.00259816    0.00000000
     atom  26 type  2   force =     0.00448981    0.00448981   -0.00314336
     atom  27 type  2   force =     0.00448981    0.00448981    0.00314336
     atom  28 type  2   force =     0.00332423    0.00418994    0.00000000
     atom  29 type  2   force =     0.00438322    0.00438271   -0.00099049
     atom  30 type  2   force =     0.00438322    0.00438271    0.00099049
     atom  31 type  2   force =     0.00418994    0.00332423    0.00000000
     atom  32 type  2   force =     0.00438271    0.00438322   -0.00099049
     atom  33 type  2   force =     0.00438271    0.00438322    0.00099049
     atom  34 type  2   force =     0.00442355    0.00442355    0.00000000
     atom  35 type  2   force =     0.00389155    0.00389155   -0.00169083
     atom  36 type  2   force =     0.00389155    0.00389155    0.00169083
     atom  37 type  2   force =    -0.01259590   -0.01259590    0.00000000
     atom  38 type  2   force =    -0.00949776   -0.00949776   -0.00595863
     atom  39 type  2   force =    -0.00949776   -0.00949776    0.00595863
     atom  40 type  2   force =    -0.00390061   -0.00422988    0.00000000
     atom  41 type  2   force =    -0.00453189   -0.00415582   -0.00072683
     atom  42 type  2   force =    -0.00453189   -0.00415582    0.00072683
     atom  43 type  2   force =    -0.00422988   -0.00390061    0.00000000
     atom  44 type  2   force =    -0.00415582   -0.00453189   -0.00072683
     atom  45 type  2   force =    -0.00415582   -0.00453189    0.00072683
     atom  46 type  2   force =    -0.00345388   -0.00345388    0.00000000
     atom  47 type  2   force =    -0.00385828   -0.00385828   -0.00086946
     atom  48 type  2   force =    -0.00385828   -0.00385828    0.00086946
     atom  49 type  2   force =    -0.00499535   -0.00170169   -0.00626690
     atom  50 type  2   force =    -0.00455107    0.00408697    0.00000000
     atom  51 type  2   force =    -0.00499535   -0.00170169    0.00626690
     atom  52 type  2   force =    -0.00018826    0.01095402   -0.00306340
     atom  53 type  2   force =    -0.00392110    0.00399000    0.00000000
     atom  54 type  2   force =    -0.00018826    0.01095402    0.00306340
     atom  55 type  2   force =    -0.00344205    0.00389592   -0.00059774
     atom  56 type  2   force =    -0.00437945    0.00438651    0.00000000
     atom  57 type  2   force =    -0.00344205    0.00389592    0.00059774
     atom  58 type  2   force =    -0.00558024    0.00515668    0.00009238
     atom  59 type  2   force =    -0.00599997    0.00579558    0.00000000
     atom  60 type  2   force =    -0.00558024    0.00515668   -0.00009238
     atom  61 type  2   force =    -0.00170169   -0.00499535   -0.00626690
     atom  62 type  2   force =     0.00408697   -0.00455107    0.00000000
     atom  63 type  2   force =    -0.00170169   -0.00499535    0.00626690
     atom  64 type  2   force =     0.00389592   -0.00344205   -0.00059774
     atom  65 type  2   force =     0.00438651   -0.00437945    0.00000000
     atom  66 type  2   force =     0.00389592   -0.00344205    0.00059774
     atom  67 type  2   force =     0.01095402   -0.00018826   -0.00306340
     atom  68 type  2   force =     0.00399000   -0.00392110    0.00000000
     atom  69 type  2   force =     0.01095402   -0.00018826    0.00306340
     atom  70 type  2   force =     0.00515668   -0.00558024    0.00009238
     atom  71 type  2   force =     0.00579558   -0.00599997    0.00000000
     atom  72 type  2   force =     0.00515668   -0.00558024   -0.00009238

     Total force =     0.194142     Total SCF correction =     0.000120


     entering subroutine stress ...

          total   stress  (Ry/bohr**3)                   (kbar)     P=   85.54
   0.00049457   0.00003876   0.00000000         72.75      5.70      0.00
   0.00003876   0.00049457   0.00000000          5.70     72.75      0.00
   0.00000000   0.00000000   0.00075526          0.00      0.00    111.10


     Writing output data file cro2.O25-FCH.save
 
     init_run     :     32.56s CPU     34.04s WALL (       1 calls)
     electrons    :   1892.88s CPU   1915.37s WALL (       1 calls)
     forces       :   1341.56s CPU   1343.24s WALL (      33 calls)
     stress       :   2464.48s CPU   2467.02s WALL (       1 calls)

     Called by init_run:
     wfcinit      :     28.50s CPU     29.34s WALL (       1 calls)
     potinit      :      0.49s CPU      0.51s WALL (       1 calls)

     Called by electrons:
     c_bands      :   1621.95s CPU   1639.96s WALL (      19 calls)
     sum_band     :    223.16s CPU    225.12s WALL (      19 calls)
     v_of_rho     :      2.75s CPU      2.78s WALL (      20 calls)
     newd         :     41.05s CPU     41.07s WALL (      20 calls)
     mix_rho      :      1.37s CPU      1.40s WALL (      19 calls)

     Called by c_bands:
     init_us_2    :      1.42s CPU      1.70s WALL (     624 calls)
     cegterg      :   1611.67s CPU   1627.94s WALL (     228 calls)

     Called by *egterg:
     h_psi        :    692.78s CPU    697.48s WALL (     947 calls)
     s_psi        :     56.45s CPU     56.52s WALL (    1079 calls)
     g_psi        :      0.70s CPU      0.70s WALL (     707 calls)
     cdiaghg      :    746.52s CPU    757.75s WALL (     935 calls)

     Called by h_psi:
     add_vuspsi   :     45.38s CPU     45.47s WALL (     947 calls)

     General routines
     calbec       :    139.93s CPU    140.73s WALL (    2506 calls)
     fft          :      6.03s CPU      6.09s WALL (     623 calls)
     ffts         :      0.87s CPU      0.88s WALL (     524 calls)
     fftw         :    642.31s CPU    647.31s WALL (  491676 calls)
     interpolate  :      0.61s CPU      0.63s WALL (      78 calls)
     davcio       :      0.26s CPU      3.82s WALL (    1812 calls)
 
     Parallel routines
     fft_scatter  :    472.14s CPU    476.45s WALL (  492823 calls)
 
     PWSCF        :     1h35m CPU        1h36m WALL

 
   This run was terminated on:   3:10:41  29Aug2018            

=------------------------------------------------------------------------------=
   JOB DONE.
=------------------------------------------------------------------------------=
