
     Program PWSCF v.4.3        starts on 29Aug2018 at 14:29:49 

     This program is part of the open-source Quantum ESPRESSO suite
     for quantum simulation of materials; please cite
         "P. Giannozzi et al., J. Phys.:Condens. Matter 21 395502 (2009);
          URL http://www.quantum-espresso.org", 
     in publications or presentations arising from this work. More details at
     http://www.quantum-espresso.org/wiki/index.php/Citing_Quantum-ESPRESSO

     Parallel version (MPI), running on     1 processors

     Current dimensions of program PWSCF are:
     Max number of different atomic species (ntypx) = **
     Max number of k-points (npk) =  40000
     Max angular momentum in pseudopotentials (lmaxx) =  3
     Waiting for input...

     Subspace diagonalization in iterative solution of the eigenvalue problem:
     a serial algorithm will be used

 
   Stick Mesh
   ----------
   nst =  4753,  nstw =   649, nsts =  2383
               n.st   n.stw   n.sts    n.g    n.gw   n.gs
   min        4753     649    2383  291115   14915  103091
   max        4753     649    2383  291115   14915  103091
       4753     649    2383  291115   14915  103091
 


     bravais-lattice index     =           14
     lattice parameter (a_0)   =      18.5628  a.u.
     unit-cell volume          =    6094.5942 (a.u.)^3
     number of atoms/cell      =            1
     number of atomic types    =            1
     number of electrons       =         7.00
     number of Kohn-Sham states=            7
     kinetic-energy cutoff     =      25.0000  Ry
     charge density cutoff     =     200.0000  Ry
     convergence threshold     =      1.0E-08
     mixing beta               =       0.1000
     number of iterations used =            8  local-TF  mixing
     Exchange-correlation      = SLA  PW   PBE  PBE (1434)
     EXX-fraction              =        0.00

     celldm(1)=  18.562780  celldm(2)=   1.000000  celldm(3)=   1.100234
     celldm(4)=   0.000000  celldm(5)=   0.000000  celldm(6)=  -0.500000

     crystal axes: (cart. coord. in units of a_0)
               a(1) = (   1.000000   0.000000   0.000000 )  
               a(2) = (  -0.500000   0.866025   0.000000 )  
               a(3) = (   0.000000   0.000000   1.100234 )  

     reciprocal axes: (cart. coord. in units 2 pi/a_0)
               b(1) = (  1.000000  0.577350  0.000000 )  
               b(2) = (  0.000000  1.154701  0.000000 )  
               b(3) = (  0.000000  0.000000  0.908897 )  


     PseudoPot. # 1 for ox read from file O.pbe-van-dgp-1s1.UPF
     MD5 check sum: 2083901d62884ac3a15d661bda1575b3
     Pseudo is Ultrasoft, Zval =  7.0
     Generated by new atomic code, or converted to UPF format
     Using radial grid of  737 points,  4 beta functions with: 
                l(1) =   0
                l(2) =   0
                l(3) =   1
                l(4) =   1
     Q(r) pseudized with  8 coefficients,  rinner =    0.800   0.800   0.800


     atomic species   valence    mass     pseudopotential
        OX             7.00    15.99900     ox( 1.00)

      8 Sym.Ops. (with inversion)


   Cartesian axes

     site n.     atom                  positions (a_0 units)
         1           OX  tau(  1) = (   0.0000000   0.0000000   0.0000000  )

     number of k points=     6  Fermi-Dirac smearing, width (Ry)=  0.0019
                       cart. coord. in units 2pi/a_0
        k(    1) = (   0.0000000   0.0000000   0.0000000), wk =   0.2500000
        k(    2) = (   0.0000000   0.0000000  -0.4544487), wk =   0.2500000
        k(    3) = (   0.0000000  -0.5773503   0.0000000), wk =   0.2500000
        k(    4) = (   0.0000000  -0.5773503  -0.4544487), wk =   0.2500000
        k(    5) = (  -0.5000000  -0.2886751   0.0000000), wk =   0.5000000
        k(    6) = (  -0.5000000  -0.2886751  -0.4544487), wk =   0.5000000

     G cutoff = 1745.6464  ( 291115 G-vectors)     FFT grid: ( 90, 90, 96)
     G cutoff =  872.8232  ( 103091 G-vectors)  smooth grid: ( 60, 60, 72)

     Largest allocated arrays     est. size (Mb)     dimensions
        Kohn-Sham Wavefunctions         1.38 Mb     (  12915,   7)
        NL pseudopotentials             1.58 Mb     (  12915,   8)
        Each V/rho on FFT grid         11.87 Mb     ( 777600)
        Each G-vector array             2.22 Mb     ( 291115)
        G-vector shells                 0.29 Mb     (  38038)
     Largest temporary arrays     est. size (Mb)     dimensions
        Auxiliary wavefunctions         5.52 Mb     (  12915,  28)
        Each subspace H/S matrix        0.01 Mb     (     28,  28)
        Each <psi_i|beta_j> matrix      0.00 Mb     (      8,   7)
        Arrays for rho mixing          94.92 Mb     ( 777600,   8)

     Initial potential from superposition of free atoms
     Check: negative starting charge=   -0.001496

     starting charge    6.00000, renormalised to    7.00000

     negative rho (up, down):  0.175E-02 0.000E+00
     Starting wfc are    4 atomic +    3 random wfc

     total cpu time spent up to now is      2.28 secs

     per-process dynamical memory:   178.0 Mb

     Self-consistent Calculation

     iteration #  1     ecut=    25.00 Ry     beta=0.10
     Davidson diagonalization with overlap
     ethr =  1.00E-02,  avg # of iterations =  7.3

     negative rho (up, down):  0.215E-01 0.000E+00

     total cpu time spent up to now is      8.58 secs

     total energy              =     -47.52138230 Ry
     Harris-Foulkes estimate   =     -47.58886943 Ry
     estimated scf accuracy    <       0.91615401 Ry

     iteration #  2     ecut=    25.00 Ry     beta=0.10
     Davidson diagonalization with overlap
     ethr =  1.00E-02,  avg # of iterations =  1.0

     negative rho (up, down):  0.182E+00 0.000E+00

     total cpu time spent up to now is     13.49 secs

     total energy              =     -47.16714680 Ry
     Harris-Foulkes estimate   =     -47.52394219 Ry
     estimated scf accuracy    <       0.71603480 Ry

     iteration #  3     ecut=    25.00 Ry     beta=0.10
     Davidson diagonalization with overlap
     ethr =  1.00E-02,  avg # of iterations =  2.0

     negative rho (up, down):  0.147E+00 0.000E+00

     total cpu time spent up to now is     18.70 secs

     total energy              =     -47.31141490 Ry
     Harris-Foulkes estimate   =     -47.31499128 Ry
     estimated scf accuracy    <       0.01451168 Ry

     iteration #  4     ecut=    25.00 Ry     beta=0.10
     Davidson diagonalization with overlap
     ethr =  2.07E-04,  avg # of iterations =  3.8

     negative rho (up, down):  0.116E+00 0.000E+00

     total cpu time spent up to now is     23.87 secs

     total energy              =     -47.30764097 Ry
     Harris-Foulkes estimate   =     -47.31348184 Ry
     estimated scf accuracy    <       0.01423042 Ry

     iteration #  5     ecut=    25.00 Ry     beta=0.10
     Davidson diagonalization with overlap
     ethr =  2.03E-04,  avg # of iterations =  1.3

     negative rho (up, down):  0.102E+00 0.000E+00

     total cpu time spent up to now is     29.32 secs

     total energy              =     -47.30159382 Ry
     Harris-Foulkes estimate   =     -47.30776445 Ry
     estimated scf accuracy    <       0.00778147 Ry

     iteration #  6     ecut=    25.00 Ry     beta=0.10
     Davidson diagonalization with overlap
     ethr =  1.11E-04,  avg # of iterations =  2.7

     negative rho (up, down):  0.801E-01 0.000E+00

     total cpu time spent up to now is     35.65 secs

     total energy              =     -47.30136321 Ry
     Harris-Foulkes estimate   =     -47.30265661 Ry
     estimated scf accuracy    <       0.00175006 Ry

     iteration #  7     ecut=    25.00 Ry     beta=0.10
     Davidson diagonalization with overlap
     ethr =  2.50E-05,  avg # of iterations =  8.5

     negative rho (up, down):  0.304E-01 0.000E+00

     total cpu time spent up to now is     43.18 secs

     total energy              =     -47.29976878 Ry
     Harris-Foulkes estimate   =     -47.30227096 Ry
     estimated scf accuracy    <       0.00636640 Ry

     iteration #  8     ecut=    25.00 Ry     beta=0.10
     Davidson diagonalization with overlap
     ethr =  2.50E-05,  avg # of iterations =  2.7

     negative rho (up, down):  0.282E-01 0.000E+00

     total cpu time spent up to now is     50.17 secs

     total energy              =     -47.30083085 Ry
     Harris-Foulkes estimate   =     -47.30084117 Ry
     estimated scf accuracy    <       0.00024720 Ry

     iteration #  9     ecut=    25.00 Ry     beta=0.10
     Davidson diagonalization with overlap
     ethr =  3.53E-06,  avg # of iterations =  7.7

     negative rho (up, down):  0.273E-01 0.000E+00

     total cpu time spent up to now is     56.64 secs

     total energy              =     -47.30181281 Ry
     Harris-Foulkes estimate   =     -47.30083609 Ry
     estimated scf accuracy    <       0.00033512 Ry

     iteration # 10     ecut=    25.00 Ry     beta=0.10
     Davidson diagonalization with overlap
     c_bands:  1 eigenvalues not converged
     ethr =  3.53E-06,  avg # of iterations =  6.5

     negative rho (up, down):  0.124E-01 0.000E+00

     total cpu time spent up to now is     62.05 secs

     total energy              =     -47.30058965 Ry
     Harris-Foulkes estimate   =     -47.30192692 Ry
     estimated scf accuracy    <       0.00152297 Ry

     iteration # 11     ecut=    25.00 Ry     beta=0.10
     Davidson diagonalization with overlap
     ethr =  3.53E-06,  avg # of iterations =  4.3

     negative rho (up, down):  0.103E-01 0.000E+00

     total cpu time spent up to now is     69.31 secs

     total energy              =     -47.30075389 Ry
     Harris-Foulkes estimate   =     -47.30077239 Ry
     estimated scf accuracy    <       0.00004085 Ry

     iteration # 12     ecut=    25.00 Ry     beta=0.10
     Davidson diagonalization with overlap
     ethr =  5.84E-07,  avg # of iterations =  4.2

     negative rho (up, down):  0.110E-01 0.000E+00

     total cpu time spent up to now is     75.85 secs

     total energy              =     -47.30080632 Ry
     Harris-Foulkes estimate   =     -47.30076668 Ry
     estimated scf accuracy    <       0.00015172 Ry

     iteration # 13     ecut=    25.00 Ry     beta=0.10
     Davidson diagonalization with overlap
     ethr =  5.84E-07,  avg # of iterations =  2.0

     negative rho (up, down):  0.103E-01 0.000E+00

     total cpu time spent up to now is     80.61 secs

     total energy              =     -47.30078337 Ry
     Harris-Foulkes estimate   =     -47.30081386 Ry
     estimated scf accuracy    <       0.00006218 Ry

     iteration # 14     ecut=    25.00 Ry     beta=0.10
     Davidson diagonalization with overlap
     ethr =  5.84E-07,  avg # of iterations =  1.0

     negative rho (up, down):  0.978E-02 0.000E+00

     total cpu time spent up to now is     87.11 secs

     total energy              =     -47.30076990 Ry
     Harris-Foulkes estimate   =     -47.30078673 Ry
     estimated scf accuracy    <       0.00000462 Ry

     iteration # 15     ecut=    25.00 Ry     beta=0.10
     Davidson diagonalization with overlap
     ethr =  6.60E-08,  avg # of iterations =  2.0

     negative rho (up, down):  0.944E-02 0.000E+00

     total cpu time spent up to now is     94.02 secs

     total energy              =     -47.30076543 Ry
     Harris-Foulkes estimate   =     -47.30077145 Ry
     estimated scf accuracy    <       0.00000096 Ry

     iteration # 16     ecut=    25.00 Ry     beta=0.10
     Davidson diagonalization with overlap
     ethr =  1.38E-08,  avg # of iterations =  1.0

     negative rho (up, down):  0.919E-02 0.000E+00

     total cpu time spent up to now is     99.36 secs

     total energy              =     -47.30076051 Ry
     Harris-Foulkes estimate   =     -47.30076556 Ry
     estimated scf accuracy    <       0.00000055 Ry

     iteration # 17     ecut=    25.00 Ry     beta=0.10
     Davidson diagonalization with overlap
     ethr =  7.81E-09,  avg # of iterations =  1.0

     negative rho (up, down):  0.903E-02 0.000E+00

     total cpu time spent up to now is    104.57 secs

     total energy              =     -47.30075607 Ry
     Harris-Foulkes estimate   =     -47.30076052 Ry
     estimated scf accuracy    <       0.00000016 Ry

     iteration # 18     ecut=    25.00 Ry     beta=0.10
     Davidson diagonalization with overlap
     ethr =  2.29E-09,  avg # of iterations =  1.0

     negative rho (up, down):  0.894E-02 0.000E+00

     total cpu time spent up to now is    111.72 secs

     total energy              =     -47.30075311 Ry
     Harris-Foulkes estimate   =     -47.30075608 Ry
     estimated scf accuracy    <       0.00000034 Ry

     iteration # 19     ecut=    25.00 Ry     beta=0.10
     Davidson diagonalization with overlap
     ethr =  2.29E-09,  avg # of iterations =  1.0

     negative rho (up, down):  0.889E-02 0.000E+00

     total cpu time spent up to now is    116.11 secs

     total energy              =     -47.30075088 Ry
     Harris-Foulkes estimate   =     -47.30075312 Ry
     estimated scf accuracy    <       0.00000008 Ry

     iteration # 20     ecut=    25.00 Ry     beta=0.10
     Davidson diagonalization with overlap
     ethr =  1.21E-09,  avg # of iterations =  1.0

     negative rho (up, down):  0.887E-02 0.000E+00

     total cpu time spent up to now is    121.09 secs

     total energy              =     -47.30074975 Ry
     Harris-Foulkes estimate   =     -47.30075089 Ry
     estimated scf accuracy    <       0.00000018 Ry

     iteration # 21     ecut=    25.00 Ry     beta=0.10
     Davidson diagonalization with overlap
     ethr =  1.21E-09,  avg # of iterations =  1.0

     negative rho (up, down):  0.886E-02 0.000E+00

     total cpu time spent up to now is    125.54 secs

     total energy              =     -47.30074786 Ry
     Harris-Foulkes estimate   =     -47.30074975 Ry
     estimated scf accuracy    <       0.00000007 Ry

     iteration # 22     ecut=    25.00 Ry     beta=0.10
     Davidson diagonalization with overlap
     ethr =  9.79E-10,  avg # of iterations =  1.0

     negative rho (up, down):  0.887E-02 0.000E+00

     total cpu time spent up to now is    131.23 secs

     total energy              =     -47.30074628 Ry
     Harris-Foulkes estimate   =     -47.30074786 Ry
     estimated scf accuracy    <       0.00000003 Ry

     iteration # 23     ecut=    25.00 Ry     beta=0.10
     Davidson diagonalization with overlap
     ethr =  4.44E-10,  avg # of iterations =  1.0

     negative rho (up, down):  0.889E-02 0.000E+00

     total cpu time spent up to now is    135.62 secs

     total energy              =     -47.30074557 Ry
     Harris-Foulkes estimate   =     -47.30074629 Ry
     estimated scf accuracy    <       0.00000013 Ry

     iteration # 24     ecut=    25.00 Ry     beta=0.10
     Davidson diagonalization with overlap
     ethr =  4.44E-10,  avg # of iterations =  2.0

     negative rho (up, down):  0.951E-02 0.000E+00

     total cpu time spent up to now is    138.32 secs

     End of self-consistent calculation

          k = 0.0000 0.0000 0.0000 ( 12915 PWs)   bands (ev):

   -26.4695 -11.5067 -11.5067 -11.5027  -0.6620   0.6394   0.6420

          k = 0.0000 0.0000-0.4544 ( 12872 PWs)   bands (ev):

   -26.4695 -11.5045 -11.5033 -11.5033  -0.4182  -0.2423   1.5398

          k = 0.0000-0.5774 0.0000 ( 12872 PWs)   bands (ev):

   -26.4695 -11.5042 -11.5035 -11.5023  -0.2073  -0.0722   0.8982

          k = 0.0000-0.5774-0.4544 ( 12896 PWs)   bands (ev):

   -26.4695 -11.5046 -11.5045 -11.5038   0.0170   0.1968   0.2446

          k =-0.5000-0.2887 0.0000 ( 12872 PWs)   bands (ev):

   -26.4695 -11.5043 -11.5035 -11.5023  -0.2073  -0.0722   0.9006

          k =-0.5000-0.2887-0.4544 ( 12896 PWs)   bands (ev):

   -26.4695 -11.5046 -11.5045 -11.5038   0.0170   0.1967   0.2446

     the Fermi energy is   -11.4624 ev

!    total energy              =     -47.30073995 Ry
     Harris-Foulkes estimate   =     -47.30074558 Ry
     estimated scf accuracy    <          5.4E-09 Ry

     The total energy is the sum of the following terms:

     one-electron contribution =     -65.07295587 Ry
     hartree contribution      =      34.20335096 Ry
     xc contribution           =      -8.82655690 Ry
     ewald contribution        =      -7.59944312 Ry
     smearing contrib. (-TS)   =      -0.00513502 Ry

     convergence has been achieved in  24 iterations
 forces --- starting time for forces:
     forces       :      0.00s CPU      0.00s WALL (       1 calls)

     Forces acting on atoms (Ry/au):

 forces --- nonlocal contribution:
     forces       :      0.27s CPU      0.28s WALL (       2 calls)
 forces --- local contribution:
     forces       :      0.30s CPU      0.32s WALL (       3 calls)
 forces --- NLCC contribution:
     forces       :      0.30s CPU      0.32s WALL (       4 calls)
 forces --- Hubbard contribution:
     forces       :      0.30s CPU      0.32s WALL (       5 calls)
 forces --- ionic contribution:
     forces       :      0.31s CPU      0.33s WALL (       6 calls)
 forces --- SCF contribution:
     forces       :      0.58s CPU      0.60s WALL (       7 calls)
     atom   1 type  1   force =     0.00000000    0.00000000    0.00000000

     Total force =     0.000000     Total SCF correction =     0.000000


     entering subroutine stress ...

          total   stress  (Ry/bohr**3)                   (kbar)     P=   -4.52
  -0.00003058   0.00000000   0.00000000         -4.50      0.00      0.00
   0.00000000  -0.00003058  -0.00000000          0.00     -4.50     -0.00
   0.00000000   0.00000000  -0.00003102          0.00      0.00     -4.56


     Writing output data file atom.O-XCH.save
 
     init_run     :      2.09s CPU      2.21s WALL (       1 calls)
     electrons    :    133.81s CPU    136.04s WALL (       1 calls)
     forces       :      0.58s CPU      0.60s WALL (       8 calls)
     stress       :      1.61s CPU      1.68s WALL (       1 calls)

     Called by init_run:
     wfcinit      :      0.50s CPU      0.51s WALL (       1 calls)
     potinit      :      0.75s CPU      0.80s WALL (       1 calls)

     Called by electrons:
     c_bands      :     32.96s CPU     33.28s WALL (      24 calls)
     sum_band     :     12.26s CPU     12.52s WALL (      24 calls)
     v_of_rho     :     10.12s CPU     10.69s WALL (      25 calls)
     newd         :      5.55s CPU      5.75s WALL (      25 calls)
     mix_rho      :     71.67s CPU     71.97s WALL (      24 calls)

     Called by c_bands:
     init_us_2    :      0.55s CPU      0.59s WALL (     306 calls)
     cegterg      :     32.20s CPU     32.36s WALL (     144 calls)

     Called by *egterg:
     h_psi        :     30.87s CPU     30.92s WALL (     552 calls)
     s_psi        :      0.15s CPU      0.15s WALL (     552 calls)
     g_psi        :      0.16s CPU      0.16s WALL (     402 calls)
     cdiaghg      :      0.07s CPU      0.07s WALL (     546 calls)

     Called by h_psi:
     add_vuspsi   :      0.15s CPU      0.15s WALL (     552 calls)

     General routines
     calbec       :      0.22s CPU      0.22s WALL (     708 calls)
     fft          :      8.47s CPU      8.70s WALL (     404 calls)
     ffts         :     42.40s CPU     42.42s WALL (    6884 calls)
     fftw         :     33.41s CPU     33.45s WALL (    6460 calls)
     interpolate  :      1.58s CPU      1.61s WALL (      49 calls)
     davcio       :      0.08s CPU      0.19s WALL (     456 calls)
 
     Parallel routines
 
     PWSCF        :  2m18.39s CPU     2m21.24s WALL

 
   This run was terminated on:  14:32:10  29Aug2018            

=------------------------------------------------------------------------------=
   JOB DONE.
=------------------------------------------------------------------------------=
