
     Program PWSCF v.4.3        starts on 29Aug2018 at 14:27:33 

     This program is part of the open-source Quantum ESPRESSO suite
     for quantum simulation of materials; please cite
         "P. Giannozzi et al., J. Phys.:Condens. Matter 21 395502 (2009);
          URL http://www.quantum-espresso.org", 
     in publications or presentations arising from this work. More details at
     http://www.quantum-espresso.org/wiki/index.php/Citing_Quantum-ESPRESSO

     Parallel version (MPI), running on     1 processors

     Current dimensions of program PWSCF are:
     Max number of different atomic species (ntypx) = **
     Max number of k-points (npk) =  40000
     Max angular momentum in pseudopotentials (lmaxx) =  3
     Waiting for input...

     Subspace diagonalization in iterative solution of the eigenvalue problem:
     a serial algorithm will be used

 
   Stick Mesh
   ----------
   nst =  4753,  nstw =   649, nsts =  2383
               n.st   n.stw   n.sts    n.g    n.gw   n.gs
   min        4753     649    2383  291115   14915  103091
   max        4753     649    2383  291115   14915  103091
       4753     649    2383  291115   14915  103091
 


     bravais-lattice index     =           14
     lattice parameter (a_0)   =      18.5628  a.u.
     unit-cell volume          =    6094.5942 (a.u.)^3
     number of atoms/cell      =            1
     number of atomic types    =            1
     number of electrons       =         6.00
     number of Kohn-Sham states=            7
     kinetic-energy cutoff     =      25.0000  Ry
     charge density cutoff     =     200.0000  Ry
     convergence threshold     =      1.0E-08
     mixing beta               =       0.1000
     number of iterations used =            8  local-TF  mixing
     Exchange-correlation      =  SLA  PW   PBE  PBE (1434)
     EXX-fraction              =        0.00

     celldm(1)=  18.562780  celldm(2)=   1.000000  celldm(3)=   1.100234
     celldm(4)=   0.000000  celldm(5)=   0.000000  celldm(6)=  -0.500000

     crystal axes: (cart. coord. in units of a_0)
               a(1) = (   1.000000   0.000000   0.000000 )  
               a(2) = (  -0.500000   0.866025   0.000000 )  
               a(3) = (   0.000000   0.000000   1.100234 )  

     reciprocal axes: (cart. coord. in units 2 pi/a_0)
               b(1) = (  1.000000  0.577350  0.000000 )  
               b(2) = (  0.000000  1.154701  0.000000 )  
               b(3) = (  0.000000  0.000000  0.908897 )  


     PseudoPot. # 1 for O  read from file O.pbe-van_bm.UPF
     MD5 check sum: ca2828d9fb1f294809e918903b7648d1
     Pseudo is Ultrasoft, Zval =  6.0
     Generated by new atomic code, or converted to UPF format
     Using radial grid of  737 points,  4 beta functions with: 
                l(1) =   0
                l(2) =   0
                l(3) =   1
                l(4) =   1
     Q(r) pseudized with  8 coefficients,  rinner =    0.800   0.800   0.800


     atomic species   valence    mass     pseudopotential
        O              6.00    15.99900     O ( 1.00)

      8 Sym.Ops. (with inversion)


   Cartesian axes

     site n.     atom                  positions (a_0 units)
         1           O   tau(  1) = (   0.0000000   0.0000000   0.0000000  )

     number of k points=     6  Fermi-Dirac smearing, width (Ry)=  0.0019
                       cart. coord. in units 2pi/a_0
        k(    1) = (   0.0000000   0.0000000   0.0000000), wk =   0.2500000
        k(    2) = (   0.0000000   0.0000000  -0.4544487), wk =   0.2500000
        k(    3) = (   0.0000000  -0.5773503   0.0000000), wk =   0.2500000
        k(    4) = (   0.0000000  -0.5773503  -0.4544487), wk =   0.2500000
        k(    5) = (  -0.5000000  -0.2886751   0.0000000), wk =   0.5000000
        k(    6) = (  -0.5000000  -0.2886751  -0.4544487), wk =   0.5000000

     G cutoff = 1745.6464  ( 291115 G-vectors)     FFT grid: ( 90, 90, 96)
     G cutoff =  872.8232  ( 103091 G-vectors)  smooth grid: ( 60, 60, 72)

     Largest allocated arrays     est. size (Mb)     dimensions
        Kohn-Sham Wavefunctions         1.38 Mb     (  12915,   7)
        NL pseudopotentials             1.58 Mb     (  12915,   8)
        Each V/rho on FFT grid         11.87 Mb     ( 777600)
        Each G-vector array             2.22 Mb     ( 291115)
        G-vector shells                 0.29 Mb     (  38038)
     Largest temporary arrays     est. size (Mb)     dimensions
        Auxiliary wavefunctions         5.52 Mb     (  12915,  28)
        Each subspace H/S matrix        0.01 Mb     (     28,  28)
        Each <psi_i|beta_j> matrix      0.00 Mb     (      8,   7)
        Arrays for rho mixing          94.92 Mb     ( 777600,   8)

     Initial potential from superposition of free atoms
     Check: negative starting charge=   -0.009193

     starting charge    6.00000, renormalised to    6.00000

     negative rho (up, down):  0.919E-02 0.000E+00
     Starting wfc are    4 atomic +    3 random wfc

     total cpu time spent up to now is      2.61 secs

     per-process dynamical memory:   178.0 Mb

     Self-consistent Calculation

     iteration #  1     ecut=    25.00 Ry     beta=0.10
     Davidson diagonalization with overlap
     ethr =  1.00E-02,  avg # of iterations =  6.8

     Threshold (ethr) on eigenvalues was too large:
     Diagonalizing with lowered threshold

     Davidson diagonalization with overlap
     ethr =  1.23E-05,  avg # of iterations = 14.3

     negative rho (up, down):  0.630E-02 0.000E+00

     total cpu time spent up to now is     11.60 secs

     total energy              =     -31.52933114 Ry
     Harris-Foulkes estimate   =     -31.52941967 Ry
     estimated scf accuracy    <       0.00109915 Ry

     iteration #  2     ecut=    25.00 Ry     beta=0.10
     Davidson diagonalization with overlap
     ethr =  1.83E-05,  avg # of iterations =  1.0

     negative rho (up, down):  0.483E-02 0.000E+00

     total cpu time spent up to now is     16.18 secs

     total energy              =     -31.52922250 Ry
     Harris-Foulkes estimate   =     -31.52933453 Ry
     estimated scf accuracy    <       0.00086137 Ry

     iteration #  3     ecut=    25.00 Ry     beta=0.10
     Davidson diagonalization with overlap
     ethr =  1.44E-05,  avg # of iterations =  1.0

     negative rho (up, down):  0.717E-02 0.000E+00

     total cpu time spent up to now is     20.42 secs

     total energy              =     -31.52901327 Ry
     Harris-Foulkes estimate   =     -31.52925002 Ry
     estimated scf accuracy    <       0.00030154 Ry

     iteration #  4     ecut=    25.00 Ry     beta=0.10
     Davidson diagonalization with overlap
     ethr =  5.03E-06,  avg # of iterations =  2.0

     negative rho (up, down):  0.655E-02 0.000E+00

     total cpu time spent up to now is     24.41 secs

     total energy              =     -31.52935783 Ry
     Harris-Foulkes estimate   =     -31.52906585 Ry
     estimated scf accuracy    <       0.00000806 Ry

     iteration #  5     ecut=    25.00 Ry     beta=0.10
     Davidson diagonalization with overlap
     ethr =  1.34E-07,  avg # of iterations =  2.3

     negative rho (up, down):  0.658E-02 0.000E+00

     total cpu time spent up to now is     28.50 secs

     total energy              =     -31.52910508 Ry
     Harris-Foulkes estimate   =     -31.52935839 Ry
     estimated scf accuracy    <       0.00000597 Ry

     iteration #  6     ecut=    25.00 Ry     beta=0.10
     Davidson diagonalization with overlap
     ethr =  9.94E-08,  avg # of iterations =  1.0

     negative rho (up, down):  0.730E-02 0.000E+00

     total cpu time spent up to now is     33.47 secs

     total energy              =     -31.52894536 Ry
     Harris-Foulkes estimate   =     -31.52910540 Ry
     estimated scf accuracy    <       0.00000226 Ry

     iteration #  7     ecut=    25.00 Ry     beta=0.10
     Davidson diagonalization with overlap
     ethr =  3.76E-08,  avg # of iterations =  1.0

     negative rho (up, down):  0.768E-02 0.000E+00

     total cpu time spent up to now is     38.84 secs

     total energy              =     -31.52889223 Ry
     Harris-Foulkes estimate   =     -31.52894545 Ry
     estimated scf accuracy    <       0.00000254 Ry

     iteration #  8     ecut=    25.00 Ry     beta=0.10
     Davidson diagonalization with overlap
     ethr =  3.76E-08,  avg # of iterations =  2.0

     negative rho (up, down):  0.799E-02 0.000E+00

     total cpu time spent up to now is     43.27 secs

     total energy              =     -31.52902049 Ry
     Harris-Foulkes estimate   =     -31.52890769 Ry
     estimated scf accuracy    <       0.00059923 Ry

     iteration #  9     ecut=    25.00 Ry     beta=0.10
     Davidson diagonalization with overlap
     ethr =  3.76E-08,  avg # of iterations =  2.0

     negative rho (up, down):  0.908E-02 0.000E+00

     total cpu time spent up to now is     47.72 secs

     total energy              =     -31.52901709 Ry
     Harris-Foulkes estimate   =     -31.52902486 Ry
     estimated scf accuracy    <       0.00013249 Ry

     iteration # 10     ecut=    25.00 Ry     beta=0.10
     Davidson diagonalization with overlap
     ethr =  3.76E-08,  avg # of iterations =  1.3

     negative rho (up, down):  0.103E-01 0.000E+00

     total cpu time spent up to now is     54.90 secs

     total energy              =     -31.52896022 Ry
     Harris-Foulkes estimate   =     -31.52901820 Ry
     estimated scf accuracy    <       0.00002718 Ry

     iteration # 11     ecut=    25.00 Ry     beta=0.10
     Davidson diagonalization with overlap
     ethr =  3.76E-08,  avg # of iterations =  1.8

     negative rho (up, down):  0.111E-01 0.000E+00

     total cpu time spent up to now is     58.58 secs

     total energy              =     -31.52890425 Ry
     Harris-Foulkes estimate   =     -31.52896318 Ry
     estimated scf accuracy    <       0.00025471 Ry

     iteration # 12     ecut=    25.00 Ry     beta=0.10
     Davidson diagonalization with overlap
     ethr =  3.76E-08,  avg # of iterations =  2.3

     negative rho (up, down):  0.120E-01 0.000E+00

     total cpu time spent up to now is     62.34 secs

     total energy              =     -31.52887567 Ry
     Harris-Foulkes estimate   =     -31.52891099 Ry
     estimated scf accuracy    <       0.00000041 Ry

     iteration # 13     ecut=    25.00 Ry     beta=0.10
     Davidson diagonalization with overlap
     ethr =  6.84E-09,  avg # of iterations =  1.0

     negative rho (up, down):  0.129E-01 0.000E+00

     total cpu time spent up to now is     65.92 secs

     total energy              =     -31.52885503 Ry
     Harris-Foulkes estimate   =     -31.52887662 Ry
     estimated scf accuracy    <       0.00003957 Ry

     iteration # 14     ecut=    25.00 Ry     beta=0.10
     Davidson diagonalization with overlap
     ethr =  6.84E-09,  avg # of iterations =  1.0

     negative rho (up, down):  0.137E-01 0.000E+00

     total cpu time spent up to now is     70.41 secs

     total energy              =     -31.52883820 Ry
     Harris-Foulkes estimate   =     -31.52885506 Ry
     estimated scf accuracy    <       0.00002921 Ry

     iteration # 15     ecut=    25.00 Ry     beta=0.10
     Davidson diagonalization with overlap
     ethr =  6.84E-09,  avg # of iterations =  1.0

     negative rho (up, down):  0.144E-01 0.000E+00

     total cpu time spent up to now is     74.22 secs

     total energy              =     -31.52883085 Ry
     Harris-Foulkes estimate   =     -31.52883903 Ry
     estimated scf accuracy    <       0.00000031 Ry

     iteration # 16     ecut=    25.00 Ry     beta=0.10
     Davidson diagonalization with overlap
     ethr =  5.14E-09,  avg # of iterations =  1.7

     negative rho (up, down):  0.150E-01 0.000E+00

     total cpu time spent up to now is     78.64 secs

     total energy              =     -31.52882669 Ry
     Harris-Foulkes estimate   =     -31.52883098 Ry
     estimated scf accuracy    <       0.00000651 Ry

     iteration # 17     ecut=    25.00 Ry     beta=0.10
     Davidson diagonalization with overlap
     ethr =  5.14E-09,  avg # of iterations =  1.0

     negative rho (up, down):  0.156E-01 0.000E+00

     total cpu time spent up to now is     83.88 secs

     total energy              =     -31.52882580 Ry
     Harris-Foulkes estimate   =     -31.52882685 Ry
     estimated scf accuracy    <       0.00000003 Ry

     iteration # 18     ecut=    25.00 Ry     beta=0.10
     Davidson diagonalization with overlap
     ethr =  5.09E-10,  avg # of iterations =  2.0

     negative rho (up, down):  0.162E-01 0.000E+00

     total cpu time spent up to now is     88.36 secs

     total energy              =     -31.52882546 Ry
     Harris-Foulkes estimate   =     -31.52882581 Ry
     estimated scf accuracy    <       0.00000016 Ry

     iteration # 19     ecut=    25.00 Ry     beta=0.10
     Davidson diagonalization with overlap
     ethr =  5.09E-10,  avg # of iterations =  2.0

     negative rho (up, down):  0.167E-01 0.000E+00

     total cpu time spent up to now is     92.99 secs

     total energy              =     -31.52882545 Ry
     Harris-Foulkes estimate   =     -31.52882547 Ry
     estimated scf accuracy    <       0.00000023 Ry

     iteration # 20     ecut=    25.00 Ry     beta=0.10
     Davidson diagonalization with overlap
     ethr =  5.09E-10,  avg # of iterations =  2.0

     negative rho (up, down):  0.171E-01 0.000E+00

     total cpu time spent up to now is     97.17 secs

     total energy              =     -31.52882541 Ry
     Harris-Foulkes estimate   =     -31.52882546 Ry
     estimated scf accuracy    <       0.00000046 Ry

     iteration # 21     ecut=    25.00 Ry     beta=0.10
     Davidson diagonalization with overlap
     ethr =  5.09E-10,  avg # of iterations =  2.0

     negative rho (up, down):  0.175E-01 0.000E+00

     total cpu time spent up to now is    101.25 secs

     total energy              =     -31.52882569 Ry
     Harris-Foulkes estimate   =     -31.52882542 Ry
     estimated scf accuracy    <       0.00000136 Ry

     iteration # 22     ecut=    25.00 Ry     beta=0.10
     Davidson diagonalization with overlap
     ethr =  5.09E-10,  avg # of iterations =  2.0

     negative rho (up, down):  0.178E-01 0.000E+00

     total cpu time spent up to now is    105.41 secs

     total energy              =     -31.52882625 Ry
     Harris-Foulkes estimate   =     -31.52882573 Ry
     estimated scf accuracy    <       0.00000002 Ry

     iteration # 23     ecut=    25.00 Ry     beta=0.10
     Davidson diagonalization with overlap
     ethr =  4.08E-10,  avg # of iterations =  2.0

     negative rho (up, down):  0.181E-01 0.000E+00

     total cpu time spent up to now is    109.94 secs

     total energy              =     -31.52882659 Ry
     Harris-Foulkes estimate   =     -31.52882625 Ry
     estimated scf accuracy    <       0.00000001 Ry

     iteration # 24     ecut=    25.00 Ry     beta=0.10
     Davidson diagonalization with overlap
     ethr =  2.03E-10,  avg # of iterations =  2.0

     negative rho (up, down):  0.184E-01 0.000E+00

     total cpu time spent up to now is    114.86 secs

     total energy              =     -31.52882686 Ry
     Harris-Foulkes estimate   =     -31.52882661 Ry
     estimated scf accuracy    <       0.00000067 Ry

     iteration # 25     ecut=    25.00 Ry     beta=0.10
     Davidson diagonalization with overlap
     ethr =  2.03E-10,  avg # of iterations =  2.0

     negative rho (up, down):  0.187E-01 0.000E+00

     total cpu time spent up to now is    119.08 secs

     total energy              =     -31.52882712 Ry
     Harris-Foulkes estimate   =     -31.52882687 Ry
     estimated scf accuracy    <       0.00000235 Ry

     iteration # 26     ecut=    25.00 Ry     beta=0.10
     Davidson diagonalization with overlap
     ethr =  2.03E-10,  avg # of iterations =  2.0

     negative rho (up, down):  0.189E-01 0.000E+00

     total cpu time spent up to now is    123.43 secs

     total energy              =     -31.52882719 Ry
     Harris-Foulkes estimate   =     -31.52882712 Ry
     estimated scf accuracy    <       0.00000314 Ry

     iteration # 27     ecut=    25.00 Ry     beta=0.10
     Davidson diagonalization with overlap
     ethr =  2.03E-10,  avg # of iterations =  1.0

     negative rho (up, down):  0.192E-01 0.000E+00

     total cpu time spent up to now is    128.71 secs

     total energy              =     -31.52882706 Ry
     Harris-Foulkes estimate   =     -31.52882720 Ry
     estimated scf accuracy    <       0.00000211 Ry

     iteration # 28     ecut=    25.00 Ry     beta=0.10
     Davidson diagonalization with overlap
     ethr =  2.03E-10,  avg # of iterations =  2.0

     negative rho (up, down):  0.211E-01 0.000E+00

     total cpu time spent up to now is    131.21 secs

     End of self-consistent calculation

          k = 0.0000 0.0000 0.0000 ( 12915 PWs)   bands (ev):

   -23.9900  -8.9083  -8.9083  -8.9048  -0.8565   0.4573   0.4581

          k = 0.0000 0.0000-0.4544 ( 12872 PWs)   bands (ev):

   -23.9900  -8.9064  -8.9053  -8.9053  -0.6135  -0.4285   1.3938

          k = 0.0000-0.5774 0.0000 ( 12872 PWs)   bands (ev):

   -23.9900  -8.9062  -8.9055  -8.9044  -0.3976  -0.2604   0.7223

          k = 0.0000-0.5774-0.4544 ( 12896 PWs)   bands (ev):

   -23.9900  -8.9065  -8.9064  -8.9058  -0.1692   0.0086   0.0604

          k =-0.5000-0.2887 0.0000 ( 12872 PWs)   bands (ev):

   -23.9900  -8.9062  -8.9055  -8.9044  -0.3976  -0.2604   0.7263

          k =-0.5000-0.2887-0.4544 ( 12896 PWs)   bands (ev):

   -23.9900  -8.9065  -8.9064  -8.9058  -0.1692   0.0086   0.0604

     the Fermi energy is    -8.8880 ev

!    total energy              =     -31.52882798 Ry
     Harris-Foulkes estimate   =     -31.52882711 Ry
     estimated scf accuracy    <          7.5E-09 Ry

     The total energy is the sum of the following terms:

     one-electron contribution =     -41.18050975 Ry
     hartree contribution      =      21.70378548 Ry
     xc contribution           =      -6.46158487 Ry
     ewald contribution        =      -5.58326438 Ry
     smearing contrib. (-TS)   =      -0.00725447 Ry

     convergence has been achieved in  28 iterations
 forces --- starting time for forces:
     forces       :      0.00s CPU      0.00s WALL (       1 calls)

     Forces acting on atoms (Ry/au):

 forces --- nonlocal contribution:
     forces       :      0.24s CPU      0.26s WALL (       2 calls)
 forces --- local contribution:
     forces       :      0.27s CPU      0.29s WALL (       3 calls)
 forces --- NLCC contribution:
     forces       :      0.27s CPU      0.29s WALL (       4 calls)
 forces --- Hubbard contribution:
     forces       :      0.27s CPU      0.29s WALL (       5 calls)
 forces --- ionic contribution:
     forces       :      0.28s CPU      0.29s WALL (       6 calls)
 forces --- SCF contribution:
     forces       :      0.51s CPU      0.53s WALL (       7 calls)
     atom   1 type  1   force =     0.00000000    0.00000000    0.00000000

     Total force =     0.000000     Total SCF correction =     0.000000


     entering subroutine stress ...

          total   stress  (Ry/bohr**3)                   (kbar)     P=   -3.24
  -0.00002194   0.00000000   0.00000000         -3.23      0.00      0.00
   0.00000000  -0.00002194   0.00000000          0.00     -3.23      0.00
   0.00000000   0.00000000  -0.00002221          0.00      0.00     -3.27


     Writing output data file atom.O-GS.save
 
     init_run     :      2.29s CPU      2.47s WALL (       1 calls)
     electrons    :    126.00s CPU    128.60s WALL (       1 calls)
     forces       :      0.51s CPU      0.53s WALL (       8 calls)
     stress       :      1.61s CPU      1.68s WALL (       1 calls)

     Called by init_run:
     wfcinit      :      0.52s CPU      0.55s WALL (       1 calls)
     potinit      :      0.89s CPU      0.93s WALL (       1 calls)

     Called by electrons:
     c_bands      :     36.34s CPU     36.73s WALL (      29 calls)
     sum_band     :     14.29s CPU     14.67s WALL (      29 calls)
     v_of_rho     :     11.86s CPU     12.48s WALL (      29 calls)
     newd         :      6.35s CPU      6.59s WALL (      29 calls)
     mix_rho      :     55.87s CPU     56.20s WALL (      29 calls)

     Called by c_bands:
     init_us_2    :      0.61s CPU      0.67s WALL (     366 calls)
     cegterg      :     35.43s CPU     35.65s WALL (     174 calls)

     Called by *egterg:
     h_psi        :     34.07s CPU     34.09s WALL (     574 calls)
     s_psi        :      0.16s CPU      0.17s WALL (     574 calls)
     g_psi        :      0.17s CPU      0.17s WALL (     394 calls)
     cdiaghg      :      0.07s CPU      0.14s WALL (     562 calls)

     Called by h_psi:
     add_vuspsi   :      0.17s CPU      0.17s WALL (     574 calls)

     General routines
     calbec       :      0.24s CPU      0.24s WALL (     760 calls)
     fft          :      9.77s CPU     10.02s WALL (     472 calls)
     ffts         :     32.91s CPU     32.94s WALL (    5351 calls)
     fftw         :     37.24s CPU     37.26s WALL (    7258 calls)
     interpolate  :      1.81s CPU      1.85s WALL (      58 calls)
     davcio       :      0.09s CPU      0.22s WALL (     546 calls)
 
     Parallel routines
 
     PWSCF        :  2m10.71s CPU     2m14.40s WALL

 
   This run was terminated on:  14:29:48  29Aug2018            

=------------------------------------------------------------------------------=
   JOB DONE.
=------------------------------------------------------------------------------=
