
     Program PWSCF v.4.3        starts on 29Aug2018 at 11: 2: 9 

     This program is part of the open-source Quantum ESPRESSO suite
     for quantum simulation of materials; please cite
         "P. Giannozzi et al., J. Phys.:Condens. Matter 21 395502 (2009);
          URL http://www.quantum-espresso.org", 
     in publications or presentations arising from this work. More details at
     http://www.quantum-espresso.org/wiki/index.php/Citing_Quantum-ESPRESSO

     Parallel version (MPI), running on    64 processors
     R & G space division:  proc/pool =   64

     Current dimensions of program PWSCF are:
     Max number of different atomic species (ntypx) = **
     Max number of k-points (npk) =  40000
     Max angular momentum in pseudopotentials (lmaxx) =  3
     Waiting for input...

     Atomic positions and unit cell read from directory:
     ./tio2.save/
 

     Subspace diagonalization in iterative solution of the eigenvalue problem:
     parallel, distributed-memory algorithm (size of sub-group:  5*  5 procs)

     Found symmetry operation: I + (  0.0000  0.0000  0.3333)
     This is a supercell, fractional translation are disabled
 
   Stick Mesh
   ----------
   nst =  7177,  nstw =   717, nsts =  2877
               n.st   n.stw   n.sts    n.g    n.gw   n.gs
   min         112      11      44    6910     217    1731
   max         114      12      45    6918     219    1759
       7177     717    2877  442525   13937  111903
 


     bravais-lattice index     =           14
     lattice parameter (a_0)   =      17.3432  a.u.
     unit-cell volume          =    5043.2518 (a.u.)^3
     number of atoms/cell      =           72
     number of atomic types    =            2
     number of electrons       =       576.00
     number of Kohn-Sham states=         1035
     kinetic-energy cutoff     =      30.0000  Ry
     charge density cutoff     =     300.0000  Ry
     Exchange-correlation      = SLA  PW   PBE  PBE (1434)
     EXX-fraction              =        0.00

     celldm(1)=  17.343151  celldm(2)=   1.000000  celldm(3)=   0.966778
     celldm(4)=   0.000000  celldm(5)=   0.000000  celldm(6)=   0.000000

     crystal axes: (cart. coord. in units of a_0)
               a(1) = (   1.000000   0.000000   0.000000 )  
               a(2) = (   0.000000   1.000000   0.000000 )  
               a(3) = (   0.000000   0.000000   0.966778 )  

     reciprocal axes: (cart. coord. in units 2 pi/a_0)
               b(1) = (  1.000000  0.000000  0.000000 )  
               b(2) = (  0.000000  1.000000  0.000000 )  
               b(3) = (  0.000000  0.000000  1.034364 )  


     PseudoPot. # 1 for O  read from file O.pbe-van_bm.UPF
     MD5 check sum: ca2828d9fb1f294809e918903b7648d1
     Pseudo is Ultrasoft, Zval =  6.0
     Generated by new atomic code, or converted to UPF format
     Using radial grid of  737 points,  4 beta functions with: 
                l(1) =   0
                l(2) =   0
                l(3) =   1
                l(4) =   1
     Q(r) pseudized with  8 coefficients,  rinner =    0.800   0.800   0.800


     PseudoPot. # 2 for Ti read from file Ti.pbe-van-yufengl.UPF
     MD5 check sum: c6a5a6e2bd61e71584bd4e9d5b89d6cc
     Pseudo is Ultrasoft, Zval = 12.0
     Generated by new atomic code, or converted to UPF format
     Using radial grid of  851 points,  6 beta functions with: 
                l(1) =   0
                l(2) =   0
                l(3) =   1
                l(4) =   1
                l(5) =   2
                l(6) =   2
     Q(r) pseudized with  6 coefficients,  rinner =    0.700   0.700   0.700
                                                       0.700   0.700

     atomic species   valence    mass     pseudopotential
        O              6.00    15.99900     O ( 1.00)
        Ti            12.00    47.86700     Ti( 1.00)

      8 Sym.Ops. (with inversion)


   Cartesian axes

     site n.     atom                  positions (a_0 units)
         1           Ti  tau(  1) = (   0.0000000   0.0000000   0.0000000  )
         2           Ti  tau(  2) = (   0.0000000   0.0000000   0.3222585  )
         3           Ti  tau(  3) = (   0.0000000   0.0000000   0.6445171  )
         4           Ti  tau(  4) = (   0.0000000   0.4999978   0.0000000  )
         5           Ti  tau(  5) = (   0.0000000   0.4999978   0.3222585  )
         6           Ti  tau(  6) = (   0.0000000   0.4999978   0.6445171  )
         7           Ti  tau(  7) = (   0.4999978   0.0000000   0.0000000  )
         8           Ti  tau(  8) = (   0.4999978   0.0000000   0.3222585  )
         9           Ti  tau(  9) = (   0.4999978   0.0000000   0.6445171  )
        10           Ti  tau( 10) = (   0.4999978   0.4999978   0.0000000  )
        11           Ti  tau( 11) = (   0.4999978   0.4999978   0.3222585  )
        12           Ti  tau( 12) = (   0.4999978   0.4999978   0.6445171  )
        13           Ti  tau( 13) = (   0.2499989   0.2499989   0.1611293  )
        14           Ti  tau( 14) = (   0.2499989   0.2499989   0.4833878  )
        15           Ti  tau( 15) = (   0.2499989   0.2499989   0.8056464  )
        16           Ti  tau( 16) = (   0.2499989   0.7499967   0.1611293  )
        17           Ti  tau( 17) = (   0.2499989   0.7499967   0.4833878  )
        18           Ti  tau( 18) = (   0.2499989   0.7499967   0.8056464  )
        19           Ti  tau( 19) = (   0.7499967   0.2499989   0.1611293  )
        20           Ti  tau( 20) = (   0.7499967   0.2499989   0.4833878  )
        21           Ti  tau( 21) = (   0.7499967   0.2499989   0.8056464  )
        22           Ti  tau( 22) = (   0.7499967   0.7499967   0.1611293  )
        23           Ti  tau( 23) = (   0.7499967   0.7499967   0.4833878  )
        24           Ti  tau( 24) = (   0.7499967   0.7499967   0.8056464  )
        25           O   tau( 25) = (   0.1511643   0.1511643   0.0000000  )
        26           O   tau( 26) = (   0.1511643   0.1511643   0.3222585  )
        27           O   tau( 27) = (   0.1511643   0.1511643   0.6445171  )
        28           O   tau( 28) = (   0.1511643   0.6511621   0.0000000  )
        29           O   tau( 29) = (   0.1511643   0.6511621   0.3222585  )
        30           O   tau( 30) = (   0.1511643   0.6511621   0.6445171  )
        31           O   tau( 31) = (   0.6511621   0.1511643   0.0000000  )
        32           O   tau( 32) = (   0.6511621   0.1511643   0.3222585  )
        33           O   tau( 33) = (   0.6511621   0.1511643   0.6445171  )
        34           O   tau( 34) = (   0.6511621   0.6511621   0.0000000  )
        35           O   tau( 35) = (   0.6511621   0.6511621   0.3222585  )
        36           O   tau( 36) = (   0.6511621   0.6511621   0.6445171  )
        37           O   tau( 37) = (   0.3488335   0.3488335   0.0000000  )
        38           O   tau( 38) = (   0.3488335   0.3488335   0.3222585  )
        39           O   tau( 39) = (   0.3488335   0.3488335   0.6445171  )
        40           O   tau( 40) = (   0.3488335   0.8488313   0.0000000  )
        41           O   tau( 41) = (   0.3488335   0.8488313   0.3222585  )
        42           O   tau( 42) = (   0.3488335   0.8488313   0.6445171  )
        43           O   tau( 43) = (   0.8488313   0.3488335   0.0000000  )
        44           O   tau( 44) = (   0.8488313   0.3488335   0.3222585  )
        45           O   tau( 45) = (   0.8488313   0.3488335   0.6445171  )
        46           O   tau( 46) = (   0.8488313   0.8488313   0.0000000  )
        47           O   tau( 47) = (   0.8488313   0.8488313   0.3222585  )
        48           O   tau( 48) = (   0.8488313   0.8488313   0.6445171  )
        49           O   tau( 49) = (   0.0988346   0.4011633   0.1611293  )
        50           O   tau( 50) = (   0.0988346   0.4011633   0.4833878  )
        51           O   tau( 51) = (   0.0988346   0.4011633   0.8056464  )
        52           O   tau( 52) = (   0.0988346   0.9011611   0.1611293  )
        53           O   tau( 53) = (   0.0988346   0.9011611   0.4833878  )
        54           O   tau( 54) = (   0.0988346   0.9011611   0.8056464  )
        55           O   tau( 55) = (   0.5988324   0.4011633   0.1611293  )
        56           O   tau( 56) = (   0.5988324   0.4011633   0.4833878  )
        57           O   tau( 57) = (   0.5988324   0.4011633   0.8056464  )
        58           O   tau( 58) = (   0.5988324   0.9011611   0.1611293  )
        59           O   tau( 59) = (   0.5988324   0.9011611   0.4833878  )
        60           O   tau( 60) = (   0.5988324   0.9011611   0.8056464  )
        61           O   tau( 61) = (   0.4011633   0.0988346   0.1611293  )
        62           O   tau( 62) = (   0.4011633   0.0988346   0.4833878  )
        63           O   tau( 63) = (   0.4011633   0.0988346   0.8056464  )
        64           O   tau( 64) = (   0.4011633   0.5988324   0.1611293  )
        65           O   tau( 65) = (   0.4011633   0.5988324   0.4833878  )
        66           O   tau( 66) = (   0.4011633   0.5988324   0.8056464  )
        67           O   tau( 67) = (   0.9011611   0.0988346   0.1611293  )
        68           O   tau( 68) = (   0.9011611   0.0988346   0.4833878  )
        69           O   tau( 69) = (   0.9011611   0.0988346   0.8056464  )
        70           O   tau( 70) = (   0.9011611   0.5988324   0.1611293  )
        71           O   tau( 71) = (   0.9011611   0.5988324   0.4833878  )
        72           O   tau( 72) = (   0.9011611   0.5988324   0.8056464  )

     number of k points=     1  Fermi-Dirac smearing, width (Ry)=  0.0019
                       cart. coord. in units 2pi/a_0
        k(    1) = (   0.0000000   0.0000000   0.0000000), wk =   2.0000000

     G cutoff = 2285.6909  ( 442525 G-vectors)     FFT grid: ( 96, 96, 96)
     G cutoff =  914.2764  ( 111903 G-vectors)  smooth grid: ( 64, 64, 60)

     Largest allocated arrays     est. size (Mb)     dimensions
        Kohn-Sham Wavefunctions         3.43 Mb     (    217,1035)
        NL pseudopotentials             2.70 Mb     (    217, 816)
        Each V/rho on FFT grid          0.28 Mb     (  18432)
        Each G-vector array             0.05 Mb     (   6911)
        G-vector shells                 0.03 Mb     (   3324)
     Largest temporary arrays     est. size (Mb)     dimensions
        Auxiliary wavefunctions        13.71 Mb     (    217,4140)
        Each subspace H/S matrix      261.53 Mb     (   4140,4140)
        Each <psi_i|beta_j> matrix     12.89 Mb     (    816,1035)

     The potential is recalculated from file :
     ./tio2.save/charge-density.dat

     Starting wfc are  432 atomic +  603 random wfc

     total cpu time spent up to now is      2.80 secs

     per-process dynamical memory:    59.3 Mb

     Band Structure Calculation
     Davidson diagonalization with overlap

     ethr =  1.74E-12,  avg # of iterations = 28.0

     total cpu time spent up to now is    313.90 secs

     End of band structure calculation

          k = 0.0000 0.0000 0.0000     band energies (ev):

   -47.6964 -47.6884 -47.6876 -47.6876 -47.6875 -47.6875 -47.6865 -47.6788
   -47.6621 -47.6620 -47.6586 -47.6580 -47.6578 -47.6578 -47.6577 -47.6576
   -47.6574 -47.6573 -47.6572 -47.6571 -47.6568 -47.6562 -47.6531 -47.6529
   -24.1513 -24.1511 -24.1511 -24.1511 -24.1507 -24.1507 -24.1506 -24.1505
   -24.1442 -24.1441 -24.1363 -24.1363 -24.1359 -24.1356 -24.1293 -24.1292
   -24.0380 -24.0380 -24.0249 -24.0249 -23.9639 -23.9638 -23.9638 -23.9637
   -23.9390 -23.9389 -23.9389 -23.9388 -23.9314 -23.9314 -23.9313 -23.9312
   -23.9243 -23.9242 -23.9242 -23.9242 -23.8873 -23.8873 -23.8872 -23.8872
   -23.8868 -23.8868 -23.8866 -23.8866 -23.8807 -23.8807 -23.8806 -23.8806
   -23.8802 -23.8802 -23.8800 -23.8800 -23.8587 -23.8587 -23.8507 -23.8506
   -23.8490 -23.8489 -23.8489 -23.8488 -23.8456 -23.8455 -23.8455 -23.8454
   -23.8188 -23.8021 -23.8013 -23.8013 -23.8012 -23.8012 -23.8002 -23.7839
    -9.0922  -8.4177  -8.4177  -8.3326  -8.3326  -8.3322  -8.3322  -8.1912
    -8.1910  -7.9703  -7.9703  -7.9701  -7.9701  -7.9697  -7.9697  -7.9695
    -7.9695  -7.9120  -7.7619  -7.7617  -7.7613  -7.7611  -7.6683  -7.6682
    -7.6677  -7.6676  -7.5657  -7.5656  -7.5652  -7.5650  -7.5465  -7.5463
    -7.4666  -7.4666  -7.4664  -7.4664  -7.4660  -7.4660  -7.4658  -7.4658
    -7.4486  -7.4486  -7.4481  -7.4481  -7.3290  -7.3290  -7.1970  -7.1970
     3.4166   3.6405   3.6405   3.8398   4.2296   4.3200   4.3200   4.3201
     4.3201   4.4421   4.4421   4.4425   4.4425   4.5131   4.5133   4.5136
     4.5138   4.5811   4.5813   4.6324   4.6324   4.6324   4.6325   4.6330
     4.6330   4.6330   4.6330   4.6396   4.6397   4.9201   4.9201   4.9202
     4.9202   4.9204   4.9204   4.9205   4.9205   5.1652   5.1652   5.1654
     5.1655   5.3465   5.3465   5.4206   5.4206   5.4326   5.4326   5.4535
     5.4538   5.4896   5.4897   5.4898   5.4898   5.7227   5.7227   5.7229
     5.7229   5.7233   5.7233   5.7234   5.7234   5.9098   5.9099   5.9104
     5.9104   5.9240   5.9240   5.9242   5.9242   6.0811   6.0811   6.0815
     6.0815   6.1276   6.1277   6.3631   6.3631   6.4798   6.4798   6.4798
     6.4798   6.4803   6.4803   6.4804   6.4804   6.6448   6.6448   6.8771
     6.8773   6.8775   6.8776   7.0080   7.0080   7.1419   7.1421   7.1422
     7.1423   7.1994   7.3824   7.3824   7.3824   7.3824   7.3825   7.3825
     7.3825   7.3825   7.5303   7.5303   7.5305   7.5305   7.6251   7.6254
     7.6257   7.6258   7.6553   7.6554   7.6558   7.6558   7.8910   7.8910
     8.1000   8.1000   8.1918   8.1919   8.2198   8.2198   8.2199   8.2199
     8.2202   8.2202   8.2203   8.2203   8.2504   8.2504   8.2508   8.2508
     8.4938   8.4938   8.4946   8.4946   8.5120   8.7608   8.7608   9.2592
    11.0498  11.0715  11.0716  11.2950  11.4838  11.4838  11.4839  11.4839
    11.4843  11.4843  11.4844  11.4844  11.5777  11.6077  11.6079  11.7028
    11.7029  11.7058  11.7058  11.7059  11.7059  11.7279  11.7280  11.9281
    11.9282  12.1716  12.1716  12.1719  12.1721  12.2024  12.2024  12.2028
    12.2030  12.2330  12.2331  12.2335  12.2337  12.2719  12.2719  12.2720
    12.2720  12.3584  12.3585  12.4582  12.4582  12.4582  12.4583  12.4586
    12.4586  12.4588  12.4588  12.6112  12.6113  12.6117  12.6118  12.7778
    12.7778  12.7779  12.7779  13.0034  13.0034  13.0035  13.0035  13.0040
    13.0040  13.0040  13.0040  13.0111  13.0112  13.0618  13.0619  13.6603
    13.8206  14.1532  14.1532  14.1532  14.1532  14.1536  14.1536  14.1537
    14.1537  14.5741  14.5742  15.0814  15.0815  15.1342  15.1342  15.1345
    15.1347  15.1560  15.1561  15.1563  15.1565  15.3056  15.3057  15.3060
    15.3063  15.3630  15.3630  15.3632  15.3632  15.3780  15.3780  15.3782
    15.3782  15.5057  15.5058  15.7423  15.7425  15.7530  15.7532  16.1246
    16.1246  16.1246  16.1246  16.1250  16.1250  16.1251  16.1251  16.9373
    17.1062  19.4441  19.4441  19.4445  19.4446  19.7716  19.7717  20.5852
    20.5853  20.8238  20.8238  21.0425  21.0426  21.0428  21.0429  21.1037
    21.1037  21.1039  21.1039  21.1040  21.1040  21.1042  21.1042  22.3533
    22.3535  22.6951  22.6951  22.6957  22.6957  23.3405  23.3410  23.3411
    23.3413  23.3861  23.3861  23.7833  23.7835  23.7838  23.7839  23.8949
    23.9538  23.9538  24.2062  24.2063  24.2508  24.2508  24.2508  24.2508
    24.2510  24.2510  24.2511  24.2511  24.3733  24.3734  24.3737  24.3737
    24.8306  25.0655  25.0655  25.0658  25.0658  25.1789  25.1789  25.1791
    25.1791  25.1792  25.1792  25.1793  25.1793  25.5867  25.5867  25.5870
    25.5870  25.5873  25.5873  25.5873  25.5873  25.6478  25.7579  25.7579
    26.6912  26.6914  26.6915  26.6917  26.7595  26.7598  27.2534  27.2535
    27.4150  27.4150  27.4154  27.4155  27.4289  27.4291  27.4294  27.4295
    27.4904  27.6044  27.6044  27.6046  27.6046  27.6502  27.6503  27.8621
    27.8621  27.8623  27.8623  27.8625  27.8625  27.8626  27.8626  27.9311
    27.9312  28.5594  28.5594  28.5595  28.5595  28.5600  28.5600  28.5600
    28.5600  28.5857  28.7750  28.7751  29.1599  29.1600  29.1605  29.1606
    29.1833  29.1833  29.1835  29.1835  30.0842  30.0844  30.4660  30.6412
    30.6412  30.6415  30.6415  30.7826  30.7826  31.0289  31.0290  31.4847
    31.4848  31.9356  31.9357  31.9360  31.9362  32.2736  32.2738  32.3339
    32.4520  32.4520  32.4522  32.4522  32.4681  32.4681  32.4681  32.4681
    32.4685  32.4685  32.4686  32.4686  33.0211  33.0211  33.0213  33.0213
    33.2093  33.2096  33.2099  33.2100  33.3521  33.3521  33.8420  33.8421
    33.8423  33.8424  34.3378  34.4968  34.4968  34.4971  34.4972  34.5141
    34.5142  34.8756  34.8756  35.0762  35.0762  35.0769  35.0769  35.1019
    35.3665  35.3666  35.3668  35.3669  35.3672  35.3673  35.3673  35.3674
    35.3677  35.3677  35.3677  35.3679  35.4865  35.4865  35.6586  35.6586
    35.6587  35.6587  35.6589  35.6589  35.6590  35.6590  35.6886  35.6888
    35.7195  35.7195  35.9825  36.2099  36.2100  36.7494  36.7494  36.9357
    36.9357  36.9361  36.9361  36.9980  36.9980  36.9981  36.9981  36.9983
    36.9983  36.9984  36.9984  37.1292  37.1292  37.1296  37.1296  37.8642
    37.8643  37.8647  37.8648  38.0236  38.1042  38.1042  38.1042  38.1042
    38.1044  38.1044  38.1044  38.1044  38.2673  38.2674  38.4953  38.4953
    38.4956  38.4957  38.9137  38.9138  39.3900  39.3900  39.3900  39.3900
    39.3903  39.3903  39.3904  39.3904  39.4902  39.4902  39.4903  39.4904
    39.6060  39.6061  40.4016  40.4016  40.4017  40.4018  40.6807  40.9064
    40.9064  41.0345  41.1772  41.1773  41.3259  41.6656  41.6657  41.9300
    41.9300  41.9301  41.9301  42.1145  42.1145  42.1146  42.1146  42.1303
    42.1303  42.1304  42.1305  42.1530  42.1532  42.1533  42.1534  42.5945
    42.5945  42.6730  42.6731  42.7317  42.7317  42.7318  42.7318  42.7319
    42.7319  42.7319  42.7319  42.8876  42.9324  42.9324  42.9328  42.9328
    43.1832  43.1833  43.4786  43.4786  43.6758  43.6758  43.6759  43.6760
    44.5914  44.5914  44.5915  44.5915  44.5919  44.5919  44.5919  44.5919
    44.6066  44.6067  44.9930  44.9930  44.9932  44.9933  45.1933  45.1934
    45.1936  45.1936  45.2115  45.4908  45.4908  45.4912  45.4912  45.4942
    45.4942  45.4942  45.4942  45.4944  45.4944  45.4945  45.4945  45.8288
    45.8289  46.0609  46.0611  46.1217  46.2738  46.2738  46.2742  46.2742
    46.4604  46.4605  46.4606  46.4608  46.6036  46.6036  46.6037  46.6037
    46.6038  46.6038  46.6040  46.6040  46.7656  46.7658  46.8718  46.8719
    46.8914  46.8915  46.9578  46.9580  47.1928  47.1929  47.1932  47.1932
    47.6377  47.6378  47.6380  47.6382  47.9577  47.9578  47.9663  47.9663
    47.9667  47.9670  47.9710  47.9711  47.9711  47.9711  47.9713  47.9714
    47.9714  47.9715  47.9851  47.9853  47.9853  47.9856  48.0888  48.0888
    48.0892  48.0892  48.1064  48.1064  48.1064  48.1064  48.3392  48.3392
    48.3393  48.3393  48.3393  48.3393  48.3394  48.3394  48.8312  48.8512
    48.8513  48.8513  48.8515  48.9697  48.9697  49.0980  49.0980  49.0981
    49.0981  49.0984  49.0984  49.0984  49.0984  49.1260  49.1262  49.2623
    49.2623  49.3691  49.3691  49.3692  49.3693  49.6865  49.6865  49.6868
    49.6868  49.7627  49.8039  49.8040  49.8040  49.8041  49.9754  49.9757
    49.9835  49.9838  50.0430  50.0430  50.0433  50.0433  50.0712  50.0713
    50.0717  50.0717  50.2262  50.6364  50.6366  50.6366  50.6367  50.6410
    50.6411  50.6411  50.6411  50.6414  50.6414  50.6414  50.6414  50.7287
    50.7423  50.7425  51.0933  51.0934  51.4491  51.4491  51.4494  51.4494
    51.4947  51.4948  51.7993  51.7993  51.9183  51.9184  51.9184  51.9185
    51.9519  51.9520  52.3622  52.3622  52.3623  52.3623  52.3626  52.3626
    52.3626  52.3626  52.6051  52.6051  52.6853  52.6948  52.6949  52.7517
    52.7521  53.0499  53.0903  53.0903  53.0904  53.0904  53.1626  53.1626
    53.1627  53.1628  53.3465  53.3465  53.3467  53.3467  53.3468  53.3468
    53.3468  53.3468  53.5615  53.5615  53.7343  53.7347  53.7348  53.7350
    53.8524  53.8524  53.8526  53.8526  53.8528  53.8528  53.8529  53.8529
    53.8979  53.8979  54.1016  54.1017  54.2122  54.9142  54.9142  54.9142
    54.9142  54.9145  54.9145  54.9146  54.9146  54.9789  54.9789  54.9790
    54.9791  55.1018  55.1019  55.1020  55.1021  55.3284  55.3284  55.4619
    55.4619  55.4625  55.4625  55.6420  56.3541  56.3541  56.3541  56.3541
    56.4050  56.6357  56.6357  56.6357  56.6357  56.6357  56.6357  56.6358
    56.6358  56.8157  56.8157  56.8157  56.8157  56.8160  56.8160  56.8160
    56.8160  57.0618  57.0620  57.0622  57.0624  57.8434  57.8434  57.8434
    57.8434  57.8436  57.8436  57.8436  57.8436  57.8595  57.8595  57.8597
    57.8598  58.1603  58.1603  58.1604  58.1605  58.2067  58.2068  58.5095
    58.5096  58.8643  58.8643

     the Fermi energy is    10.1672 ev

     Writing output data file tio2.save
 
     init_run     :      1.90s CPU      2.57s WALL (       1 calls)
     electrons    :    310.35s CPU    311.19s WALL (       1 calls)

     Called by init_run:
     wfcinit      :      0.00s CPU      0.00s WALL (       1 calls)
     potinit      :      0.07s CPU      0.08s WALL (       1 calls)

     Called by electrons:
     c_bands      :    310.26s CPU    311.10s WALL (       1 calls)
     v_of_rho     :      0.03s CPU      0.03s WALL (       1 calls)
     newd         :      0.73s CPU      0.73s WALL (       1 calls)

     Called by c_bands:
     init_us_2    :      0.00s CPU      0.00s WALL (       1 calls)
     cegterg      :    307.16s CPU    307.94s WALL (       2 calls)

     Called by *egterg:
     h_psi        :     25.60s CPU     25.71s WALL (      31 calls)
     s_psi        :      0.95s CPU      0.95s WALL (      31 calls)
     g_psi        :      0.02s CPU      0.02s WALL (      28 calls)
     cdiaghg      :    246.10s CPU    246.73s WALL (      29 calls)

     Called by h_psi:
     add_vuspsi   :      0.92s CPU      0.94s WALL (      31 calls)

     General routines
     calbec       :      1.28s CPU      1.30s WALL (      31 calls)
     fft          :      0.04s CPU      0.04s WALL (      12 calls)
     ffts         :      0.00s CPU      0.00s WALL (       1 calls)
     fftw         :     23.11s CPU     23.18s WALL (   27010 calls)
     interpolate  :      0.00s CPU      0.00s WALL (       1 calls)
     davcio       :      0.00s CPU      0.01s WALL (       3 calls)
 
     Parallel routines
     fft_scatter  :     20.94s CPU     21.01s WALL (   27023 calls)
 
     PWSCF        :  5m14.92s CPU     5m17.05s WALL

 
   This run was terminated on:  11: 7:26  29Aug2018            

=------------------------------------------------------------------------------=
   JOB DONE.
=------------------------------------------------------------------------------=
