
     Program PWSCF v.4.3        starts on 29Aug2018 at 10:54:50 

     This program is part of the open-source Quantum ESPRESSO suite
     for quantum simulation of materials; please cite
         "P. Giannozzi et al., J. Phys.:Condens. Matter 21 395502 (2009);
          URL http://www.quantum-espresso.org", 
     in publications or presentations arising from this work. More details at
     http://www.quantum-espresso.org/wiki/index.php/Citing_Quantum-ESPRESSO

     Parallel version (MPI), running on    64 processors
     R & G space division:  proc/pool =   64

     Current dimensions of program PWSCF are:
     Max number of different atomic species (ntypx) = **
     Max number of k-points (npk) =  40000
     Max angular momentum in pseudopotentials (lmaxx) =  3
     Waiting for input...

     Subspace diagonalization in iterative solution of the eigenvalue problem:
     parallel, distributed-memory algorithm (size of sub-group:  5*  5 procs)

     Found symmetry operation: I + (  0.0000  0.0000  0.3333)
     This is a supercell, fractional translation are disabled
 
   Stick Mesh
   ----------
   nst =  7177,  nstw =   793, nsts =  2877
               n.st   n.stw   n.sts    n.g    n.gw   n.gs
   min         112      12      44    6910     256    1735
   max         114      13      45    6918     263    1759
       7177     793    2877  442525   16599  111903
 


     bravais-lattice index     =           14
     lattice parameter (a_0)   =      17.3432  a.u.
     unit-cell volume          =    5043.2518 (a.u.)^3
     number of atoms/cell      =           72
     number of atomic types    =            2
     number of electrons       =       576.00
     number of Kohn-Sham states=          345
     kinetic-energy cutoff     =      30.0000  Ry
     charge density cutoff     =     300.0000  Ry
     convergence threshold     =      1.0E-08
     mixing beta               =       0.3000
     number of iterations used =            8  local-TF  mixing
     Exchange-correlation      = SLA  PW   PBE  PBE (1434)
     EXX-fraction              =        0.00

     celldm(1)=  17.343151  celldm(2)=   1.000000  celldm(3)=   0.966778
     celldm(4)=   0.000000  celldm(5)=   0.000000  celldm(6)=   0.000000

     crystal axes: (cart. coord. in units of a_0)
               a(1) = (   1.000000   0.000000   0.000000 )  
               a(2) = (   0.000000   1.000000   0.000000 )  
               a(3) = (   0.000000   0.000000   0.966778 )  

     reciprocal axes: (cart. coord. in units 2 pi/a_0)
               b(1) = (  1.000000  0.000000  0.000000 )  
               b(2) = (  0.000000  1.000000  0.000000 )  
               b(3) = (  0.000000  0.000000  1.034364 )  


     PseudoPot. # 1 for O  read from file O.pbe-van_bm.UPF
     MD5 check sum: ca2828d9fb1f294809e918903b7648d1
     Pseudo is Ultrasoft, Zval =  6.0
     Generated by new atomic code, or converted to UPF format
     Using radial grid of  737 points,  4 beta functions with: 
                l(1) =   0
                l(2) =   0
                l(3) =   1
                l(4) =   1
     Q(r) pseudized with  8 coefficients,  rinner =    0.800   0.800   0.800


     PseudoPot. # 2 for Ti read from file Ti.pbe-van-yufengl.UPF
     MD5 check sum: c6a5a6e2bd61e71584bd4e9d5b89d6cc
     Pseudo is Ultrasoft, Zval = 12.0
     Generated by new atomic code, or converted to UPF format
     Using radial grid of  851 points,  6 beta functions with: 
                l(1) =   0
                l(2) =   0
                l(3) =   1
                l(4) =   1
                l(5) =   2
                l(6) =   2
     Q(r) pseudized with  6 coefficients,  rinner =    0.700   0.700   0.700
                                                       0.700   0.700

     atomic species   valence    mass     pseudopotential
        O              6.00    15.99900     O ( 1.00)
        Ti            12.00    47.86700     Ti( 1.00)

      8 Sym.Ops. (with inversion)


   Cartesian axes

     site n.     atom                  positions (a_0 units)
         1           Ti  tau(  1) = (   0.0000000   0.0000000   0.0000000  )
         2           Ti  tau(  2) = (   0.0000000   0.0000000   0.3222585  )
         3           Ti  tau(  3) = (   0.0000000   0.0000000   0.6445171  )
         4           Ti  tau(  4) = (   0.0000000   0.4999978   0.0000000  )
         5           Ti  tau(  5) = (   0.0000000   0.4999978   0.3222585  )
         6           Ti  tau(  6) = (   0.0000000   0.4999978   0.6445171  )
         7           Ti  tau(  7) = (   0.4999978   0.0000000   0.0000000  )
         8           Ti  tau(  8) = (   0.4999978   0.0000000   0.3222585  )
         9           Ti  tau(  9) = (   0.4999978   0.0000000   0.6445171  )
        10           Ti  tau( 10) = (   0.4999978   0.4999978   0.0000000  )
        11           Ti  tau( 11) = (   0.4999978   0.4999978   0.3222585  )
        12           Ti  tau( 12) = (   0.4999978   0.4999978   0.6445171  )
        13           Ti  tau( 13) = (   0.2499989   0.2499989   0.1611293  )
        14           Ti  tau( 14) = (   0.2499989   0.2499989   0.4833878  )
        15           Ti  tau( 15) = (   0.2499989   0.2499989   0.8056464  )
        16           Ti  tau( 16) = (   0.2499989   0.7499967   0.1611293  )
        17           Ti  tau( 17) = (   0.2499989   0.7499967   0.4833878  )
        18           Ti  tau( 18) = (   0.2499989   0.7499967   0.8056464  )
        19           Ti  tau( 19) = (   0.7499967   0.2499989   0.1611293  )
        20           Ti  tau( 20) = (   0.7499967   0.2499989   0.4833878  )
        21           Ti  tau( 21) = (   0.7499967   0.2499989   0.8056464  )
        22           Ti  tau( 22) = (   0.7499967   0.7499967   0.1611293  )
        23           Ti  tau( 23) = (   0.7499967   0.7499967   0.4833878  )
        24           Ti  tau( 24) = (   0.7499967   0.7499967   0.8056464  )
        25           O   tau( 25) = (   0.1511643   0.1511643   0.0000000  )
        26           O   tau( 26) = (   0.1511643   0.1511643   0.3222585  )
        27           O   tau( 27) = (   0.1511643   0.1511643   0.6445171  )
        28           O   tau( 28) = (   0.1511643   0.6511621   0.0000000  )
        29           O   tau( 29) = (   0.1511643   0.6511621   0.3222585  )
        30           O   tau( 30) = (   0.1511643   0.6511621   0.6445171  )
        31           O   tau( 31) = (   0.6511621   0.1511643   0.0000000  )
        32           O   tau( 32) = (   0.6511621   0.1511643   0.3222585  )
        33           O   tau( 33) = (   0.6511621   0.1511643   0.6445171  )
        34           O   tau( 34) = (   0.6511621   0.6511621   0.0000000  )
        35           O   tau( 35) = (   0.6511621   0.6511621   0.3222585  )
        36           O   tau( 36) = (   0.6511621   0.6511621   0.6445171  )
        37           O   tau( 37) = (   0.3488335   0.3488335   0.0000000  )
        38           O   tau( 38) = (   0.3488335   0.3488335   0.3222585  )
        39           O   tau( 39) = (   0.3488335   0.3488335   0.6445171  )
        40           O   tau( 40) = (   0.3488335   0.8488313   0.0000000  )
        41           O   tau( 41) = (   0.3488335   0.8488313   0.3222585  )
        42           O   tau( 42) = (   0.3488335   0.8488313   0.6445171  )
        43           O   tau( 43) = (   0.8488313   0.3488335   0.0000000  )
        44           O   tau( 44) = (   0.8488313   0.3488335   0.3222585  )
        45           O   tau( 45) = (   0.8488313   0.3488335   0.6445171  )
        46           O   tau( 46) = (   0.8488313   0.8488313   0.0000000  )
        47           O   tau( 47) = (   0.8488313   0.8488313   0.3222585  )
        48           O   tau( 48) = (   0.8488313   0.8488313   0.6445171  )
        49           O   tau( 49) = (   0.0988346   0.4011633   0.1611293  )
        50           O   tau( 50) = (   0.0988346   0.4011633   0.4833878  )
        51           O   tau( 51) = (   0.0988346   0.4011633   0.8056464  )
        52           O   tau( 52) = (   0.0988346   0.9011611   0.1611293  )
        53           O   tau( 53) = (   0.0988346   0.9011611   0.4833878  )
        54           O   tau( 54) = (   0.0988346   0.9011611   0.8056464  )
        55           O   tau( 55) = (   0.5988324   0.4011633   0.1611293  )
        56           O   tau( 56) = (   0.5988324   0.4011633   0.4833878  )
        57           O   tau( 57) = (   0.5988324   0.4011633   0.8056464  )
        58           O   tau( 58) = (   0.5988324   0.9011611   0.1611293  )
        59           O   tau( 59) = (   0.5988324   0.9011611   0.4833878  )
        60           O   tau( 60) = (   0.5988324   0.9011611   0.8056464  )
        61           O   tau( 61) = (   0.4011633   0.0988346   0.1611293  )
        62           O   tau( 62) = (   0.4011633   0.0988346   0.4833878  )
        63           O   tau( 63) = (   0.4011633   0.0988346   0.8056464  )
        64           O   tau( 64) = (   0.4011633   0.5988324   0.1611293  )
        65           O   tau( 65) = (   0.4011633   0.5988324   0.4833878  )
        66           O   tau( 66) = (   0.4011633   0.5988324   0.8056464  )
        67           O   tau( 67) = (   0.9011611   0.0988346   0.1611293  )
        68           O   tau( 68) = (   0.9011611   0.0988346   0.4833878  )
        69           O   tau( 69) = (   0.9011611   0.0988346   0.8056464  )
        70           O   tau( 70) = (   0.9011611   0.5988324   0.1611293  )
        71           O   tau( 71) = (   0.9011611   0.5988324   0.4833878  )
        72           O   tau( 72) = (   0.9011611   0.5988324   0.8056464  )

     number of k points=     6  Fermi-Dirac smearing, width (Ry)=  0.0019
                       cart. coord. in units 2pi/a_0
        k(    1) = (   0.0000000   0.0000000   0.0000000), wk =   0.2500000
        k(    2) = (   0.0000000   0.0000000  -0.5171819), wk =   0.2500000
        k(    3) = (   0.0000000  -0.5000000   0.0000000), wk =   0.5000000
        k(    4) = (   0.0000000  -0.5000000  -0.5171819), wk =   0.5000000
        k(    5) = (  -0.5000000  -0.5000000   0.0000000), wk =   0.2500000
        k(    6) = (  -0.5000000  -0.5000000  -0.5171819), wk =   0.2500000

     G cutoff = 2285.6909  ( 442525 G-vectors)     FFT grid: ( 96, 96, 96)
     G cutoff =  914.2764  ( 111903 G-vectors)  smooth grid: ( 64, 64, 60)

     Largest allocated arrays     est. size (Mb)     dimensions
        Kohn-Sham Wavefunctions         1.17 Mb     (    223, 345)
        NL pseudopotentials             2.78 Mb     (    223, 816)
        Each V/rho on FFT grid          0.28 Mb     (  18432)
        Each G-vector array             0.05 Mb     (   6911)
        G-vector shells                 0.03 Mb     (   3325)
     Largest temporary arrays     est. size (Mb)     dimensions
        Auxiliary wavefunctions         4.70 Mb     (    223,1380)
        Each subspace H/S matrix       29.06 Mb     (   1380,1380)
        Each <psi_i|beta_j> matrix      4.30 Mb     (    816, 345)
        Arrays for rho mixing           2.25 Mb     (  18432,   8)

     Initial potential from superposition of free atoms

     starting charge  575.96021, renormalised to  576.00000
     Starting wfc are  432 atomic wfcs

     total cpu time spent up to now is      9.48 secs

     per-process dynamical memory:    65.7 Mb

     Self-consistent Calculation

     iteration #  1     ecut=    30.00 Ry     beta=0.30
     Davidson diagonalization with overlap
     ethr =  1.00E-02,  avg # of iterations =  2.0

     total cpu time spent up to now is     25.70 secs

     total energy              =   -4344.21238953 Ry
     Harris-Foulkes estimate   =   -4350.89928192 Ry
     estimated scf accuracy    <      32.94241435 Ry

     iteration #  2     ecut=    30.00 Ry     beta=0.30
     Davidson diagonalization with overlap
     ethr =  5.72E-03,  avg # of iterations =  1.0

     total cpu time spent up to now is     39.79 secs

     total energy              =   -4339.77019631 Ry
     Harris-Foulkes estimate   =   -4345.31224867 Ry
     estimated scf accuracy    <      12.78329520 Ry

     iteration #  3     ecut=    30.00 Ry     beta=0.30
     Davidson diagonalization with overlap
     ethr =  2.22E-03,  avg # of iterations =  3.2

     total cpu time spent up to now is     63.58 secs

     total energy              =   -4342.55564656 Ry
     Harris-Foulkes estimate   =   -4343.76058435 Ry
     estimated scf accuracy    <       3.16757199 Ry

     iteration #  4     ecut=    30.00 Ry     beta=0.30
     Davidson diagonalization with overlap
     ethr =  5.50E-04,  avg # of iterations =  3.0

     total cpu time spent up to now is     84.91 secs

     total energy              =   -4343.21925886 Ry
     Harris-Foulkes estimate   =   -4343.35667230 Ry
     estimated scf accuracy    <       0.60841137 Ry

     iteration #  5     ecut=    30.00 Ry     beta=0.30
     Davidson diagonalization with overlap
     ethr =  1.06E-04,  avg # of iterations =  3.5

     total cpu time spent up to now is    104.84 secs

     total energy              =   -4343.29276781 Ry
     Harris-Foulkes estimate   =   -4343.29201199 Ry
     estimated scf accuracy    <       0.00647128 Ry

     iteration #  6     ecut=    30.00 Ry     beta=0.30
     Davidson diagonalization with overlap
     ethr =  1.12E-06,  avg # of iterations =  5.7

     total cpu time spent up to now is    146.34 secs

     total energy              =   -4343.29461886 Ry
     Harris-Foulkes estimate   =   -4343.30345302 Ry
     estimated scf accuracy    <       0.04054530 Ry

     iteration #  7     ecut=    30.00 Ry     beta=0.30
     Davidson diagonalization with overlap
     ethr =  1.12E-06,  avg # of iterations =  3.3

     total cpu time spent up to now is    172.09 secs

     total energy              =   -4343.29836047 Ry
     Harris-Foulkes estimate   =   -4343.29819275 Ry
     estimated scf accuracy    <       0.00203922 Ry

     iteration #  8     ecut=    30.00 Ry     beta=0.30
     Davidson diagonalization with overlap
     ethr =  3.54E-07,  avg # of iterations =  1.0

     total cpu time spent up to now is    186.45 secs

     total energy              =   -4343.29849603 Ry
     Harris-Foulkes estimate   =   -4343.29843412 Ry
     estimated scf accuracy    <       0.00067099 Ry

     iteration #  9     ecut=    30.00 Ry     beta=0.30
     Davidson diagonalization with overlap
     ethr =  1.16E-07,  avg # of iterations =  3.0

     total cpu time spent up to now is    206.67 secs

     total energy              =   -4343.29878343 Ry
     Harris-Foulkes estimate   =   -4343.29868021 Ry
     estimated scf accuracy    <       0.00006637 Ry

     iteration # 10     ecut=    30.00 Ry     beta=0.30
     Davidson diagonalization with overlap
     ethr =  1.15E-08,  avg # of iterations =  1.0

     total cpu time spent up to now is    220.93 secs

     total energy              =   -4343.29883590 Ry
     Harris-Foulkes estimate   =   -4343.29878564 Ry
     estimated scf accuracy    <       0.00003342 Ry

     iteration # 11     ecut=    30.00 Ry     beta=0.30
     Davidson diagonalization with overlap
     ethr =  5.80E-09,  avg # of iterations =  2.2

     total cpu time spent up to now is    238.19 secs

     total energy              =   -4343.29886510 Ry
     Harris-Foulkes estimate   =   -4343.29883826 Ry
     estimated scf accuracy    <       0.00000523 Ry

     iteration # 12     ecut=    30.00 Ry     beta=0.30
     Davidson diagonalization with overlap
     ethr =  9.08E-10,  avg # of iterations =  2.3

     total cpu time spent up to now is    254.75 secs

     total energy              =   -4343.29887712 Ry
     Harris-Foulkes estimate   =   -4343.29886530 Ry
     estimated scf accuracy    <       0.00000542 Ry

     iteration # 13     ecut=    30.00 Ry     beta=0.30
     Davidson diagonalization with overlap
     ethr =  9.08E-10,  avg # of iterations =  2.3

     total cpu time spent up to now is    271.41 secs

     total energy              =   -4343.29888376 Ry
     Harris-Foulkes estimate   =   -4343.29887754 Ry
     estimated scf accuracy    <       0.00000067 Ry

     iteration # 14     ecut=    30.00 Ry     beta=0.30
     Davidson diagonalization with overlap
     ethr =  1.16E-10,  avg # of iterations =  3.0

     total cpu time spent up to now is    293.08 secs

     total energy              =   -4343.29888706 Ry
     Harris-Foulkes estimate   =   -4343.29888395 Ry
     estimated scf accuracy    <       0.00000003 Ry

     iteration # 15     ecut=    30.00 Ry     beta=0.30
     Davidson diagonalization with overlap
     ethr =  4.37E-12,  avg # of iterations =  2.5

     total cpu time spent up to now is    311.78 secs

     total energy              =   -4343.29888859 Ry
     Harris-Foulkes estimate   =   -4343.29888709 Ry
     estimated scf accuracy    <       0.00000003 Ry

     iteration # 16     ecut=    30.00 Ry     beta=0.30
     Davidson diagonalization with overlap
     ethr =  4.37E-12,  avg # of iterations =  3.0

     total cpu time spent up to now is    331.94 secs

     total energy              =   -4343.29888942 Ry
     Harris-Foulkes estimate   =   -4343.29888866 Ry
     estimated scf accuracy    <       0.00000002 Ry

     iteration # 17     ecut=    30.00 Ry     beta=0.30
     Davidson diagonalization with overlap
     ethr =  2.71E-12,  avg # of iterations =  3.0

     total cpu time spent up to now is    350.29 secs

     total energy              =   -4343.29888983 Ry
     Harris-Foulkes estimate   =   -4343.29888946 Ry
     estimated scf accuracy    <       0.00000002 Ry

     iteration # 18     ecut=    30.00 Ry     beta=0.30
     Davidson diagonalization with overlap
     ethr =  2.71E-12,  avg # of iterations =  3.3

     total cpu time spent up to now is    373.42 secs

     total energy              =   -4343.29889013 Ry
     Harris-Foulkes estimate   =   -4343.29888995 Ry
     estimated scf accuracy    <       0.00000001 Ry

     iteration # 19     ecut=    30.00 Ry     beta=0.30
     Davidson diagonalization with overlap
     ethr =  1.86E-12,  avg # of iterations =  4.0

     total cpu time spent up to now is    402.01 secs

     total energy              =   -4343.29889034 Ry
     Harris-Foulkes estimate   =   -4343.29889026 Ry
     estimated scf accuracy    <       0.00000001 Ry

     iteration # 20     ecut=    30.00 Ry     beta=0.30
     Davidson diagonalization with overlap
     ethr =  1.86E-12,  avg # of iterations =  3.0

     total cpu time spent up to now is    421.14 secs

     End of self-consistent calculation

          k = 0.0000 0.0000 0.0000 ( 13937 PWs)   bands (ev):

   -47.6963 -47.6882 -47.6875 -47.6875 -47.6874 -47.6874 -47.6866 -47.6787
   -47.6620 -47.6618 -47.6584 -47.6578 -47.6577 -47.6576 -47.6576 -47.6575
   -47.6573 -47.6572 -47.6571 -47.6570 -47.6568 -47.6562 -47.6530 -47.6528
   -24.1512 -24.1511 -24.1510 -24.1510 -24.1506 -24.1506 -24.1505 -24.1504
   -24.1442 -24.1440 -24.1362 -24.1362 -24.1358 -24.1356 -24.1293 -24.1291
   -24.0379 -24.0379 -24.0248 -24.0248 -23.9637 -23.9637 -23.9637 -23.9637
   -23.9389 -23.9388 -23.9388 -23.9387 -23.9313 -23.9313 -23.9312 -23.9311
   -23.9241 -23.9241 -23.9241 -23.9241 -23.8872 -23.8872 -23.8871 -23.8871
   -23.8867 -23.8867 -23.8865 -23.8865 -23.8806 -23.8806 -23.8805 -23.8805
   -23.8801 -23.8801 -23.8799 -23.8799 -23.8587 -23.8586 -23.8506 -23.8505
   -23.8489 -23.8489 -23.8488 -23.8487 -23.8455 -23.8455 -23.8454 -23.8453
   -23.8187 -23.8019 -23.8012 -23.8012 -23.8011 -23.8011 -23.8003 -23.7838
    -9.0923  -8.4178  -8.4178  -8.3327  -8.3327  -8.3322  -8.3322  -8.1913
    -8.1910  -7.9704  -7.9704  -7.9702  -7.9702  -7.9698  -7.9698  -7.9696
    -7.9696  -7.9121  -7.7620  -7.7617  -7.7614  -7.7612  -7.6684  -7.6682
    -7.6678  -7.6677  -7.5658  -7.5656  -7.5653  -7.5651  -7.5466  -7.5464
    -7.4667  -7.4667  -7.4665  -7.4665  -7.4660  -7.4660  -7.4658  -7.4658
    -7.4487  -7.4487  -7.4482  -7.4482  -7.3291  -7.3291  -7.1971  -7.1971
     3.4166   3.6404   3.6405   3.8397   4.2295   4.3200   4.3200   4.3201
     4.3201   4.4420   4.4420   4.4424   4.4425   4.5130   4.5132   4.5135
     4.5137   4.5810   4.5812   4.6324   4.6324   4.6324   4.6324   4.6329
     4.6329   4.6329   4.6329   4.6395   4.6397   4.9201   4.9201   4.9202
     4.9202   4.9204   4.9204   4.9205   4.9205   5.1651   5.1652   5.1654
     5.1654   5.3465   5.3465   5.4205   5.4206   5.4325   5.4326   5.4535
     5.4537   5.4896   5.4896   5.4898   5.4898   5.7227   5.7227   5.7228
     5.7228   5.7232   5.7232   5.7234   5.7234   5.9098   5.9099   5.9103
     5.9104   5.9240   5.9240   5.9241   5.9241   6.0811   6.0811   6.0814
     6.0814   6.1275   6.1276   6.3631   6.3631   6.4797   6.4797   6.4797
     6.4797   6.4803   6.4803   6.4804   6.4804   6.6447   6.6448   6.8771
     6.8772   6.8775   6.8776   7.0079   7.0080   7.1419   7.1420   7.1422
     7.1422   7.1993   7.3823   7.3823   7.3824   7.3824   7.3824   7.3824
     7.3824   7.3824   7.5302   7.5302   7.5304   7.5304   7.6251   7.6253
     7.6256   7.6258   7.6552   7.6553   7.6557   7.6558   7.8909   7.8909
     8.0999   8.0999   8.1917   8.1918   8.2197   8.2197   8.2198   8.2198
     8.2201   8.2201   8.2202   8.2202   8.2503   8.2504   8.2507   8.2508
     8.4937   8.4937   8.4945   8.4945   8.5119   8.7607   8.7607   9.2591
    11.0499  11.0715  11.0716  11.2951  11.4839  11.4839  11.4839  11.4839
    11.4844  11.4844  11.4844  11.4844  11.5778  11.6077  11.6079  11.7029
    11.7029  11.7058  11.7058  11.7059  11.7060  11.7280  11.7280  11.9281
    11.9283  12.1716  12.1717  12.1719  12.1721  12.2025  12.2025  12.2029
    12.2031  12.2331  12.2332  12.2335  12.2337  12.2719  12.2719  12.2720
    12.2720  12.3584  12.3585  12.4583  12.4583  12.4583  12.4583  12.4586
    12.4586  12.4588  12.4588  12.6113  12.6113  12.6117  12.6118  12.7780
    12.7780

          k = 0.0000 0.0000-0.5172 ( 13998 PWs)   bands (ev):

   -47.6854 -47.6849 -47.6785 -47.6779 -47.6778 -47.6777 -47.6777 -47.6776
   -47.6773 -47.6773 -47.6772 -47.6771 -47.6769 -47.6762 -47.6701 -47.6696
   -47.6484 -47.6474 -47.6473 -47.6473 -47.6473 -47.6473 -47.6472 -47.6461
   -24.2566 -24.2566 -24.2566 -24.2565 -24.2444 -24.2443 -24.2436 -24.2434
   -24.0075 -24.0075 -24.0070 -24.0069 -23.9958 -23.9958 -23.9953 -23.9952
   -23.9553 -23.9553 -23.9553 -23.9553 -23.9552 -23.9552 -23.9551 -23.9551
   -23.9330 -23.9330 -23.9329 -23.9329 -23.9326 -23.9326 -23.9324 -23.9324
   -23.9298 -23.9293 -23.9152 -23.9151 -23.9147 -23.9145 -23.9012 -23.9007
   -23.8907 -23.8907 -23.8884 -23.8884 -23.8798 -23.8798 -23.8798 -23.8798
   -23.8797 -23.8797 -23.8797 -23.8796 -23.8774 -23.8774 -23.8773 -23.8772
   -23.8586 -23.8584 -23.8572 -23.8569 -23.8558 -23.8558 -23.8558 -23.8552
   -23.8539 -23.8539 -23.8534 -23.8534 -23.8470 -23.8470 -23.8464 -23.8464
    -8.8188  -8.8182  -8.2025  -8.2024  -8.2020  -8.2018  -8.1443  -8.1443
    -8.1437  -8.1437  -8.1436  -8.1436  -8.1431  -8.1431  -8.0255  -8.0255
    -8.0255  -8.0255  -7.7815  -7.7815  -7.7681  -7.7675  -7.6874  -7.6874
    -7.6523  -7.6522  -7.5350  -7.5349  -7.5268  -7.5268  -7.5262  -7.5262
    -7.5261  -7.5261  -7.5256  -7.5256  -7.4421  -7.4419  -7.4416  -7.4414
    -7.3207  -7.3204  -7.3201  -7.3199  -7.2857  -7.2857  -7.2857  -7.2856
     3.8011   3.8017   3.9456   3.9458   3.9461   3.9463   4.1208   4.1214
     4.1240   4.1240   4.1240   4.1240   4.4400   4.4401   4.5465   4.5471
     4.5976   4.5978   4.6346   4.6346   4.6349   4.6349   4.6351   4.6351
     4.6354   4.6354   4.6713   4.6713   4.7765   4.7766   4.7767   4.7767
     5.0720   5.0720   5.0721   5.0721   5.0721   5.0721   5.0721   5.0721
     5.1302   5.1302   5.1303   5.1303   5.1630   5.1631   5.1633   5.1633
     5.4653   5.4654   5.5811   5.5811   5.6585   5.6585   5.8666   5.8666
     5.8666   5.8666   5.8668   5.8668   5.8669   5.8669   5.9034   5.9034
     5.9034   5.9034   6.4114   6.4114   6.4458   6.4458   6.4530   6.4530
     6.4530   6.4530   6.4535   6.4536   6.4536   6.4536   6.4583   6.4587
     6.7881   6.7882   6.8333   6.8333   6.8333   6.8333   7.0316   7.0316
     7.0316   7.0316   7.0318   7.0318   7.0318   7.0318   7.0631   7.0633
     7.0635   7.0637   7.1321   7.1322   7.1324   7.1325   7.1893   7.1893
     7.1893   7.1893   7.1922   7.1924   7.1928   7.1929   7.2014   7.2016
     7.2017   7.2018   7.5177   7.5181   7.7604   7.7606   7.7608   7.7609
     7.8025   7.8026   7.8894   7.8895   8.1740   8.1740   8.1740   8.1740
     8.2306   8.2306   8.2310   8.2310   8.5365   8.5365   8.5369   8.5369
     8.5371   8.5371   8.5375   8.5375   8.5739   8.5739   9.0673   9.0678
    11.1262  11.1262  11.1262  11.1262  11.4620  11.4625  11.5323  11.5324
    11.5328  11.5329  11.5374  11.5379  11.6258  11.6262  11.8555  11.8556
    11.8791  11.8791  11.8791  11.8792  11.8792  11.8792  11.8793  11.8793
    11.9007  11.9008  11.9011  11.9012  12.0308  12.0308  12.0311  12.0312
    12.2397  12.2398  12.2952  12.2952  12.2952  12.2952  12.2954  12.2954
    12.2955  12.2955  12.3908  12.3909  12.4175  12.4175  12.4348  12.4348
    12.4349  12.4349  12.4580  12.4581  12.7974  12.7974  12.7978  12.7980
    12.7989

          k = 0.0000-0.5000 0.0000 ( 14026 PWs)   bands (ev):

   -47.6940 -47.6934 -47.6880 -47.6875 -47.6874 -47.6868 -47.6815 -47.6809
   -47.6610 -47.6608 -47.6604 -47.6603 -47.6582 -47.6576 -47.6576 -47.6575
   -47.6572 -47.6572 -47.6571 -47.6564 -47.6546 -47.6544 -47.6540 -47.6538
   -24.1499 -24.1498 -24.1493 -24.1493 -24.1446 -24.1440 -24.1439 -24.1439
   -24.1436 -24.1435 -24.1435 -24.1428 -24.1387 -24.1386 -24.1382 -24.1380
   -24.0122 -24.0120 -24.0116 -24.0114 -24.0043 -24.0038 -24.0026 -24.0020
   -23.9205 -23.9204 -23.9203 -23.9203 -23.9199 -23.9199 -23.9198 -23.9197
   -23.9175 -23.9173 -23.9169 -23.9167 -23.9139 -23.9138 -23.9134 -23.9132
   -23.8837 -23.8831 -23.8819 -23.8813 -23.8767 -23.8766 -23.8762 -23.8760
   -23.8599 -23.8598 -23.8593 -23.8592 -23.8570 -23.8568 -23.8564 -23.8563
   -23.8557 -23.8555 -23.8555 -23.8554 -23.8550 -23.8550 -23.8550 -23.8548
   -23.8138 -23.8132 -23.8017 -23.8012 -23.8011 -23.8005 -23.7892 -23.7886
    -8.8734  -8.8725  -8.3782  -8.3776  -8.3774  -8.3768  -8.1294  -8.1292
    -8.1286  -8.1284  -7.9304  -7.9299  -7.8984  -7.8981  -7.8977  -7.8976
    -7.8975  -7.8973  -7.8969  -7.8966  -7.7598  -7.7596  -7.7595  -7.7593
    -7.5364  -7.5360  -7.5356  -7.5356  -7.5354  -7.5354  -7.5352  -7.5351
    -7.5348  -7.5347  -7.5346  -7.5343  -7.4474  -7.4472  -7.4470  -7.4468
    -7.3974  -7.3969  -7.3872  -7.3867  -7.3865  -7.3858  -7.2817  -7.2808
     3.7983   3.7991   3.9369   3.9373   3.9376   3.9380   4.0885   4.0892
     4.4717   4.4720   4.4721   4.4723   4.4724   4.4725   4.4727   4.4729
     4.6195   4.6195   4.6196   4.6196   4.6547   4.6556   4.7216   4.7217
     4.7221   4.7222   4.7826   4.7827   4.7828   4.7832   4.7832   4.7836
     4.7837   4.7838   4.7981   4.7981   4.7983   4.7983   5.0841   5.0842
     5.0842   5.0843   5.4135   5.4141   5.4142   5.4147   5.4468   5.4475
     5.4628   5.4634   5.5993   5.5993   5.5995   5.5995   5.6922   5.6923
     5.6930   5.6931   5.7468   5.7469   5.7470   5.7471   5.7473   5.7474
     5.7475   5.7476   5.9070   5.9075   5.9076   5.9081   6.1850   6.1851
     6.1852   6.1852   6.2747   6.2755   6.4850   6.4857   6.8246   6.8246
     6.8247   6.8249   6.8250   6.8252   6.8254   6.8254   6.9512   6.9512
     6.9515   6.9516   6.9787   6.9787   6.9793   6.9793   7.1462   7.1463
     7.1468   7.1469   7.2350   7.2356   7.3847   7.3851   7.3853   7.3854
     7.3854   7.3855   7.3856   7.3859   7.5621   7.5622   7.5625   7.5626
     7.7082   7.7088   7.7089   7.7095   7.7461   7.7462   7.7468   7.7469
     7.7656   7.7663   8.1142   8.1149   8.1149   8.1156   8.1324   8.1331
     8.2764   8.2766   8.2770   8.2770   8.2772   8.2772   8.2776   8.2778
     8.3973   8.3982   8.4087   8.4088   8.4093   8.4095   9.0147   9.0156
    11.3421  11.3422  11.3424  11.3425  11.3435  11.3440  11.4372  11.4376
    11.4377  11.4383  11.6344  11.6350  11.6831  11.6832  11.6836  11.6837
    11.6837  11.6838  11.6841  11.6842  11.9468  11.9473  11.9939  11.9943
    11.9944  11.9949  11.9992  11.9997  12.0256  12.0261  12.1289  12.1289
    12.1289  12.1290  12.1882  12.1883  12.1886  12.1887  12.3049  12.3054
    12.3054  12.3055  12.3057  12.3058  12.3060  12.3065  12.4196  12.4198
    12.4202  12.4203  12.7680  12.7680  12.7684  12.7685  12.7686  12.7688
    12.7690

          k = 0.0000-0.5000-0.5172 ( 13952 PWs)   bands (ev):

   -47.6835 -47.6829 -47.6829 -47.6824 -47.6783 -47.6777 -47.6776 -47.6776
   -47.6773 -47.6772 -47.6771 -47.6765 -47.6726 -47.6721 -47.6720 -47.6715
   -47.6484 -47.6474 -47.6473 -47.6473 -47.6473 -47.6473 -47.6473 -47.6461
   -24.2515 -24.2506 -24.2506 -24.2504 -24.2503 -24.2502 -24.2502 -24.2492
   -23.9886 -23.9885 -23.9881 -23.9881 -23.9881 -23.9880 -23.9876 -23.9875
   -23.9856 -23.9851 -23.9851 -23.9847 -23.9770 -23.9765 -23.9764 -23.9759
   -23.9212 -23.9208 -23.9208 -23.9205 -23.9189 -23.9186 -23.9185 -23.9184
   -23.9183 -23.9183 -23.9183 -23.9182 -23.9180 -23.9180 -23.9178 -23.9175
   -23.8846 -23.8838 -23.8838 -23.8834 -23.8830 -23.8827 -23.8826 -23.8818
   -23.8708 -23.8703 -23.8702 -23.8698 -23.8624 -23.8622 -23.8620 -23.8620
   -23.8618 -23.8618 -23.8616 -23.8616 -23.8614 -23.8613 -23.8613 -23.8610
   -23.8580 -23.8572 -23.8572 -23.8569 -23.8566 -23.8565 -23.8564 -23.8555
    -8.6266  -8.6260  -8.6257  -8.6251  -8.1755  -8.1750  -8.1749  -8.1747
    -8.1743  -8.1741  -8.1741  -8.1736  -7.9331  -7.9328  -7.9323  -7.9319
    -7.9245  -7.9245  -7.9237  -7.9235  -7.7582  -7.7577  -7.7577  -7.7571
    -7.5153  -7.5148  -7.5147  -7.5142  -7.4834  -7.4829  -7.4829  -7.4826
    -7.4823  -7.4820  -7.4820  -7.4815  -7.4019  -7.4018  -7.4011  -7.4009
    -7.3863  -7.3858  -7.3854  -7.3849  -7.3819  -7.3816  -7.3811  -7.3807
     4.1212   4.1218   4.1220   4.1226   4.2063   4.2066   4.2071   4.2073
     4.2400   4.2402   4.2404   4.2406   4.2409   4.2411   4.2413   4.2415
     4.3891   4.3897   4.3899   4.3904   4.4202   4.4204   4.4210   4.4212
     4.7249   4.7253   4.7253   4.7257   4.8764   4.8765   4.8766   4.8767
     4.8771   4.8772   4.8774   4.8774   4.9738   4.9739   4.9743   4.9744
     5.0618   5.0621   5.0622   5.0625   5.1120   5.1122   5.1128   5.1129
     5.5008   5.5009   5.5011   5.5011   5.7121   5.7121   5.7122   5.7123
     5.9172   5.9174   5.9174   5.9176   6.2949   6.2952   6.2955   6.2958
     6.3305   6.3306   6.3308   6.3309   6.3310   6.3310   6.3312   6.3313
     6.5672   6.5676   6.5678   6.5680   6.5744   6.5744   6.5750   6.5750
     6.5830   6.5831   6.5831   6.5832   6.9068   6.9068   6.9070   6.9071
     6.9073   6.9074   6.9076   6.9076   7.0027   7.0029   7.0034   7.0036
     7.0581   7.0581   7.0586   7.0586   7.2654   7.2656   7.2657   7.2658
     7.2660   7.2661   7.2663   7.2665   7.3900   7.3901   7.3903   7.3904
     7.6163   7.6165   7.6169   7.6171   7.6641   7.6644   7.6647   7.6649
     8.0166   8.0168   8.0169   8.0170   8.1165   8.1169   8.1171   8.1173
     8.1175   8.1176   8.1178   8.1182   8.1788   8.1792   8.1795   8.1799
     8.3498   8.3504   8.3504   8.3509   8.8687   8.8692   8.8695   8.8700
    11.3978  11.3980  11.3984  11.3986  11.5705  11.5707  11.5707  11.5710
    11.6919  11.6921  11.6924  11.6926  11.7714  11.7717  11.7718  11.7719
    11.7719  11.7721  11.7721  11.7725  11.8817  11.8821  11.8822  11.8827
    11.9067  11.9072  11.9072  11.9077  12.0500  12.0504  12.0505  12.0508
    12.0554  12.0555  12.0555  12.0556  12.0558  12.0559  12.0559  12.0561
    12.3538  12.3539  12.3540  12.3541  12.4264  12.4269  12.4270  12.4276
    12.4447  12.4452  12.4452  12.4458  12.7878  12.7882  12.7883  12.7885
    12.7886

          k =-0.5000-0.5000 0.0000 ( 14028 PWs)   bands (ev):

   -47.6925 -47.6918 -47.6918 -47.6913 -47.6836 -47.6831 -47.6831 -47.6824
   -47.6604 -47.6601 -47.6597 -47.6597 -47.6595 -47.6595 -47.6591 -47.6591
   -47.6557 -47.6557 -47.6552 -47.6552 -47.6551 -47.6551 -47.6546 -47.6543
   -24.1507 -24.1506 -24.1505 -24.1505 -24.1501 -24.1500 -24.1500 -24.1499
   -24.1373 -24.1373 -24.1372 -24.1372 -24.1368 -24.1367 -24.1366 -24.1364
   -24.0314 -24.0314 -24.0314 -24.0313 -23.9644 -23.9644 -23.9644 -23.9644
   -23.9351 -23.9351 -23.9351 -23.9350 -23.9350 -23.9350 -23.9349 -23.9349
   -23.9235 -23.9235 -23.9235 -23.9235 -23.8863 -23.8863 -23.8862 -23.8862
   -23.8862 -23.8862 -23.8861 -23.8860 -23.8810 -23.8810 -23.8809 -23.8809
   -23.8808 -23.8808 -23.8807 -23.8807 -23.8547 -23.8546 -23.8546 -23.8546
   -23.8473 -23.8472 -23.8472 -23.8472 -23.8471 -23.8471 -23.8470 -23.8470
   -23.8105 -23.8099 -23.8099 -23.8093 -23.7930 -23.7925 -23.7925 -23.7919
    -8.7323  -8.7315  -8.7315  -8.7307  -8.0639  -8.0637  -8.0632  -8.0631
    -8.0630  -8.0629  -8.0624  -8.0622  -8.0254  -8.0250  -8.0250  -8.0246
    -7.7432  -7.7430  -7.7430  -7.7429  -7.7428  -7.7427  -7.7427  -7.7425
    -7.6178  -7.6178  -7.6176  -7.6176  -7.6173  -7.6173  -7.6171  -7.6171
    -7.4842  -7.4838  -7.4838  -7.4834  -7.4454  -7.4452  -7.4450  -7.4448
    -7.4447  -7.4445  -7.4443  -7.4441  -7.2645  -7.2644  -7.2644  -7.2644
     3.6279   3.6280   3.6280   3.6282   4.3943   4.3943   4.3943   4.3943
     4.5666   4.5667   4.5668   4.5668   4.5671   4.5672   4.5673   4.5673
     4.6306   4.6307   4.6308   4.6308   4.6311   4.6313   4.6314   4.6314
     4.6358   4.6358   4.6359   4.6361   4.6363   4.6363   4.6363   4.6364
     4.9754   4.9762   4.9762   4.9771   5.0742   5.0744   5.0744   5.0746
     5.0747   5.0748   5.0749   5.0750   5.3598   5.3598   5.3599   5.3599
     5.3603   5.3603   5.3604   5.3604   5.3834   5.3834   5.3834   5.3835
     5.4901   5.4902   5.4902   5.4903   6.0604   6.0604   6.0604   6.0604
     6.1465   6.1465   6.1465   6.1466   6.1469   6.1469   6.1470   6.1470
     6.4401   6.4403   6.4406   6.4407   6.4408   6.4409   6.4412   6.4414
     6.7645   6.7645   6.7645   6.7646   6.7718   6.7719   6.7719   6.7719
     6.7722   6.7722   6.7723   6.7723   7.0960   7.0960   7.0962   7.0962
     7.0964   7.0964   7.0965   7.0965   7.3411   7.3416   7.3416   7.3421
     7.4728   7.4729   7.4729   7.4730   7.6378   7.6378   7.6380   7.6380
     7.6383   7.6383   7.6384   7.6384   7.9203   7.9203   7.9204   7.9204
     7.9208   7.9208   7.9209   7.9209   8.0575   8.0581   8.0581   8.0587
     8.0945   8.0947   8.0947   8.0949   8.5030   8.5031   8.5036   8.5037
     8.5037   8.5038   8.5043   8.5044   8.8096   8.8103   8.8103   8.8109
    11.1096  11.1099  11.1100  11.1102  11.3276  11.3277  11.3278  11.3279
    11.3281  11.3282  11.3283  11.3284  11.7149  11.7149  11.7150  11.7150
    11.7397  11.7400  11.7401  11.7405  12.0959  12.0959  12.0960  12.0960
    12.0960  12.0960  12.0962  12.0962  12.2696  12.2696  12.2697  12.2698
    12.2701  12.2701  12.2702  12.2702  12.2775  12.2775  12.2776  12.2776
    12.3549  12.3554  12.3554  12.3560  12.4109  12.4109  12.4110  12.4110
    12.4112  12.4114  12.4114  12.4115  12.5815  12.5818  12.5819  12.5821
    12.5821

          k =-0.5000-0.5000-0.5172 ( 13984 PWs)   bands (ev):

   -47.6822 -47.6816 -47.6815 -47.6815 -47.6810 -47.6810 -47.6810 -47.6805
   -47.6744 -47.6739 -47.6739 -47.6739 -47.6734 -47.6734 -47.6733 -47.6727
   -47.6484 -47.6474 -47.6473 -47.6473 -47.6473 -47.6473 -47.6473 -47.6461
   -24.2554 -24.2553 -24.2553 -24.2552 -24.2454 -24.2454 -24.2453 -24.2452
   -24.0017 -24.0017 -24.0016 -24.0016 -24.0011 -24.0011 -24.0011 -24.0011
   -23.9507 -23.9507 -23.9507 -23.9507 -23.9506 -23.9506 -23.9506 -23.9505
   -23.9433 -23.9432 -23.9431 -23.9431 -23.9430 -23.9429 -23.9428 -23.9427
   -23.9094 -23.9094 -23.9093 -23.9093 -23.9092 -23.9092 -23.9090 -23.9090
   -23.8896 -23.8896 -23.8896 -23.8895 -23.8800 -23.8800 -23.8799 -23.8799
   -23.8798 -23.8798 -23.8797 -23.8797 -23.8769 -23.8769 -23.8769 -23.8768
   -23.8582 -23.8577 -23.8577 -23.8576 -23.8561 -23.8561 -23.8561 -23.8555
   -23.8505 -23.8505 -23.8505 -23.8505 -23.8500 -23.8499 -23.8499 -23.8499
    -8.4971  -8.4965  -8.4963  -8.4962  -8.4957  -8.4957  -8.4954  -8.4949
    -8.0286  -8.0286  -8.0286  -8.0286  -7.8431  -7.8429  -7.8428  -7.8426
    -7.8426  -7.8424  -7.8423  -7.8421  -7.7350  -7.7350  -7.7350  -7.7350
    -7.5936  -7.5936  -7.5935  -7.5935  -7.5789  -7.5784  -7.5784  -7.5783
    -7.5779  -7.5778  -7.5778  -7.5773  -7.3824  -7.3824  -7.3822  -7.3822
    -7.3819  -7.3819  -7.3817  -7.3817  -7.2823  -7.2823  -7.2823  -7.2823
     3.9390   3.9391   3.9392   3.9393   3.9395   3.9396   3.9398   3.9399
     4.1426   4.1426   4.1427   4.1427   4.7174   4.7175   4.7177   4.7177
     4.7177   4.7178   4.7181   4.7182   4.7247   4.7248   4.7248   4.7248
     4.7252   4.7252   4.7253   4.7254   4.7735   4.7735   4.7735   4.7735
     4.9107   4.9107   4.9107   4.9107   4.9875   4.9876   4.9876   4.9876
     5.0806   5.0806   5.0806   5.0806   5.0807   5.0807   5.0807   5.0807
     5.1364   5.1364   5.1365   5.1365   5.7017   5.7019   5.7021   5.7021
     5.7023   5.7023   5.7026   5.7028   6.1539   6.1539   6.1540   6.1541
     6.1541   6.1541   6.1542   6.1542   6.4200   6.4200   6.4200   6.4200
     6.5651   6.5651   6.5651   6.5651   6.6202   6.6202   6.6202   6.6202
     6.6647   6.6647   6.6647   6.6648   6.6648   6.6648   6.6649   6.6649
     6.9910   6.9910   6.9911   6.9911   6.9913   6.9913   6.9914   6.9914
     7.1467   7.1467   7.1468   7.1468   7.1471   7.1471   7.1472   7.1472
     7.3157   7.3157   7.3157   7.3157   7.7042   7.7042   7.7042   7.7042
     7.8263   7.8263   7.8263   7.8263   7.9868   7.9868   7.9869   7.9869
     7.9872   7.9873   7.9873   7.9873   8.0001   8.0001   8.0001   8.0001
     8.0373   8.0375   8.0375   8.0377   8.0377   8.0378   8.0379   8.0380
     8.5645   8.5650   8.5653   8.5653   8.5658   8.5658   8.5661   8.5666
    11.3413  11.3413  11.3413  11.3413  11.5266  11.5268  11.5269  11.5271
    11.5271  11.5273  11.5273  11.5275  11.6378  11.6379  11.6380  11.6381
    11.6381  11.6382  11.6383  11.6384  11.9800  11.9802  11.9803  11.9803
    11.9805  11.9806  11.9806  11.9808  12.0425  12.0425  12.0426  12.0426
    12.3797  12.3797  12.3797  12.3797  12.4065  12.4065  12.4066  12.4066
    12.4066  12.4066  12.4067  12.4068  12.4351  12.4351  12.4351  12.4351
    12.4480  12.4482  12.4483  12.4484  12.4485  12.4486  12.4487  12.4489
    12.4986

     the Fermi energy is    10.0100 ev

!    total energy              =   -4343.29889047 Ry
     Harris-Foulkes estimate   =   -4343.29889039 Ry
     estimated scf accuracy    <          3.4E-09 Ry

     The total energy is the sum of the following terms:

     one-electron contribution =   -1506.86843184 Ry
     hartree contribution      =    1027.86661996 Ry
     xc contribution           =    -686.12416018 Ry
     ewald contribution        =   -3178.17291840 Ry
     smearing contrib. (-TS)   =      -0.00000000 Ry

     convergence has been achieved in  20 iterations
 forces --- starting time for forces:
     forces       :      0.00s CPU      0.00s WALL (       1 calls)

     Forces acting on atoms (Ry/au):

 forces --- nonlocal contribution:
     forces       :      1.39s CPU      1.39s WALL (       2 calls)
 forces --- local contribution:
     forces       :      1.40s CPU      1.41s WALL (       3 calls)
 forces --- NLCC contribution:
     forces       :      1.40s CPU      1.41s WALL (       4 calls)
 forces --- Hubbard contribution:
     forces       :      1.40s CPU      1.41s WALL (       5 calls)
 forces --- ionic contribution:
     forces       :      1.42s CPU      1.42s WALL (       6 calls)
 forces --- SCF contribution:
     forces       :      1.48s CPU      1.49s WALL (       7 calls)
     atom   1 type  2   force =     0.00000000    0.00000000    0.00000000
     atom   2 type  2   force =     0.00000000    0.00000000   -0.00000251
     atom   3 type  2   force =     0.00000000    0.00000000    0.00000251
     atom   4 type  2   force =     0.00000000    0.00000000    0.00000000
     atom   5 type  2   force =     0.00000000    0.00000000   -0.00000247
     atom   6 type  2   force =     0.00000000    0.00000000    0.00000247
     atom   7 type  2   force =     0.00000000    0.00000000    0.00000000
     atom   8 type  2   force =     0.00000000    0.00000000   -0.00000247
     atom   9 type  2   force =     0.00000000    0.00000000    0.00000247
     atom  10 type  2   force =     0.00000000    0.00000000    0.00000000
     atom  11 type  2   force =     0.00000000    0.00000000   -0.00000246
     atom  12 type  2   force =     0.00000000    0.00000000    0.00000246
     atom  13 type  2   force =    -0.00000151   -0.00000151   -0.00000644
     atom  14 type  2   force =    -0.00000149   -0.00000149    0.00000000
     atom  15 type  2   force =    -0.00000151   -0.00000151    0.00000644
     atom  16 type  2   force =     0.00000032   -0.00000032   -0.00000633
     atom  17 type  2   force =     0.00000033   -0.00000033    0.00000000
     atom  18 type  2   force =     0.00000032   -0.00000032    0.00000633
     atom  19 type  2   force =    -0.00000032    0.00000032   -0.00000633
     atom  20 type  2   force =    -0.00000033    0.00000033    0.00000000
     atom  21 type  2   force =    -0.00000032    0.00000032    0.00000633
     atom  22 type  2   force =     0.00000151    0.00000151   -0.00000644
     atom  23 type  2   force =     0.00000149    0.00000149    0.00000000
     atom  24 type  2   force =     0.00000151    0.00000151    0.00000644
     atom  25 type  1   force =     0.00640675    0.00640675    0.00000000
     atom  26 type  1   force =     0.00640760    0.00640760   -0.00000038
     atom  27 type  1   force =     0.00640760    0.00640760    0.00000038
     atom  28 type  1   force =     0.00641114    0.00641509    0.00000000
     atom  29 type  1   force =     0.00641183    0.00641576   -0.00000031
     atom  30 type  1   force =     0.00641183    0.00641576    0.00000031
     atom  31 type  1   force =     0.00641509    0.00641114    0.00000000
     atom  32 type  1   force =     0.00641576    0.00641183   -0.00000031
     atom  33 type  1   force =     0.00641576    0.00641183    0.00000031
     atom  34 type  1   force =     0.00641895    0.00641895    0.00000000
     atom  35 type  1   force =     0.00641968    0.00641968   -0.00000035
     atom  36 type  1   force =     0.00641968    0.00641968    0.00000035
     atom  37 type  1   force =    -0.00641895   -0.00641895    0.00000000
     atom  38 type  1   force =    -0.00641968   -0.00641968   -0.00000035
     atom  39 type  1   force =    -0.00641968   -0.00641968    0.00000035
     atom  40 type  1   force =    -0.00641509   -0.00641114    0.00000000
     atom  41 type  1   force =    -0.00641576   -0.00641183   -0.00000031
     atom  42 type  1   force =    -0.00641576   -0.00641183    0.00000031
     atom  43 type  1   force =    -0.00641114   -0.00641509    0.00000000
     atom  44 type  1   force =    -0.00641183   -0.00641576   -0.00000031
     atom  45 type  1   force =    -0.00641183   -0.00641576    0.00000031
     atom  46 type  1   force =    -0.00640675   -0.00640675    0.00000000
     atom  47 type  1   force =    -0.00640760   -0.00640760   -0.00000038
     atom  48 type  1   force =    -0.00640760   -0.00640760    0.00000038
     atom  49 type  1   force =    -0.00643182    0.00642646   -0.00000267
     atom  50 type  1   force =    -0.00643137    0.00642602    0.00000000
     atom  51 type  1   force =    -0.00643182    0.00642646    0.00000267
     atom  52 type  1   force =    -0.00643784    0.00643784   -0.00000288
     atom  53 type  1   force =    -0.00643752    0.00643752    0.00000000
     atom  54 type  1   force =    -0.00643784    0.00643784    0.00000288
     atom  55 type  1   force =    -0.00641945    0.00641945   -0.00000292
     atom  56 type  1   force =    -0.00641919    0.00641919    0.00000000
     atom  57 type  1   force =    -0.00641945    0.00641945    0.00000292
     atom  58 type  1   force =    -0.00642646    0.00643182   -0.00000267
     atom  59 type  1   force =    -0.00642602    0.00643137    0.00000000
     atom  60 type  1   force =    -0.00642646    0.00643182    0.00000267
     atom  61 type  1   force =     0.00642646   -0.00643182   -0.00000267
     atom  62 type  1   force =     0.00642602   -0.00643137    0.00000000
     atom  63 type  1   force =     0.00642646   -0.00643182    0.00000267
     atom  64 type  1   force =     0.00641945   -0.00641945   -0.00000292
     atom  65 type  1   force =     0.00641919   -0.00641919    0.00000000
     atom  66 type  1   force =     0.00641945   -0.00641945    0.00000292
     atom  67 type  1   force =     0.00643784   -0.00643784   -0.00000288
     atom  68 type  1   force =     0.00643752   -0.00643752    0.00000000
     atom  69 type  1   force =     0.00643784   -0.00643784    0.00000288
     atom  70 type  1   force =     0.00643182   -0.00642646   -0.00000267
     atom  71 type  1   force =     0.00643137   -0.00642602    0.00000000
     atom  72 type  1   force =     0.00643182   -0.00642646    0.00000267

     Total force =     0.062914     Total SCF correction =     0.000158


     entering subroutine stress ...

          total   stress  (Ry/bohr**3)                   (kbar)     P=   53.60
   0.00038464  -0.00000001   0.00000000         56.58     -0.00      0.00
  -0.00000001   0.00038464   0.00000000         -0.00     56.58      0.00
   0.00000000   0.00000000   0.00032372          0.00      0.00     47.62


     Writing output data file tio2.save
 
     init_run     :      8.46s CPU      9.27s WALL (       1 calls)
     electrons    :    407.04s CPU    411.66s WALL (       1 calls)
     forces       :      1.48s CPU      1.49s WALL (       8 calls)
     stress       :      6.15s CPU      6.16s WALL (       1 calls)

     Called by init_run:
     wfcinit      :      6.50s CPU      6.63s WALL (       1 calls)
     potinit      :      0.11s CPU      0.11s WALL (       1 calls)

     Called by electrons:
     c_bands      :    344.15s CPU    347.69s WALL (      20 calls)
     sum_band     :     48.47s CPU     48.68s WALL (      20 calls)
     v_of_rho     :      0.48s CPU      0.49s WALL (      21 calls)
     newd         :     13.11s CPU     13.12s WALL (      21 calls)
     mix_rho      :      0.64s CPU      0.64s WALL (      20 calls)

     Called by c_bands:
     init_us_2    :      0.26s CPU      0.32s WALL (     258 calls)
     cegterg      :    342.49s CPU    345.73s WALL (     120 calls)

     Called by *egterg:
     h_psi        :    194.95s CPU    195.63s WALL (     458 calls)
     s_psi        :      7.11s CPU      7.11s WALL (     458 calls)
     g_psi        :      0.11s CPU      0.11s WALL (     332 calls)
     cdiaghg      :    120.56s CPU    123.09s WALL (     452 calls)

     Called by h_psi:
     add_vuspsi   :      7.02s CPU      7.04s WALL (     458 calls)

     General routines
     calbec       :     15.62s CPU     15.70s WALL (     590 calls)
     fft          :      1.71s CPU      1.72s WALL (     340 calls)
     ffts         :      0.48s CPU      0.48s WALL (     476 calls)
     fftw         :    211.44s CPU    212.19s WALL (  243946 calls)
     interpolate  :      0.16s CPU      0.16s WALL (      41 calls)
     davcio       :      0.05s CPU      0.33s WALL (     384 calls)
 
     Parallel routines
     fft_scatter  :    193.26s CPU    193.94s WALL (  244762 calls)
 
     PWSCF        :  7m 8.27s CPU     7m15.02s WALL

 
   This run was terminated on:  11: 2: 5  29Aug2018            

=------------------------------------------------------------------------------=
   JOB DONE.
=------------------------------------------------------------------------------=
