
     Program PWSCF v.4.3        starts on 29Aug2018 at 10:43: 1 

     This program is part of the open-source Quantum ESPRESSO suite
     for quantum simulation of materials; please cite
         "P. Giannozzi et al., J. Phys.:Condens. Matter 21 395502 (2009);
          URL http://www.quantum-espresso.org", 
     in publications or presentations arising from this work. More details at
     http://www.quantum-espresso.org/wiki/index.php/Citing_Quantum-ESPRESSO

     Parallel version (MPI), running on    64 processors
     R & G space division:  proc/pool =   64

     Current dimensions of program PWSCF are:
     Max number of different atomic species (ntypx) = **
     Max number of k-points (npk) =  40000
     Max angular momentum in pseudopotentials (lmaxx) =  3
     Waiting for input...

     Subspace diagonalization in iterative solution of the eigenvalue problem:
     parallel, distributed-memory algorithm (size of sub-group:  5*  5 procs)

     Found symmetry operation: I + (  0.0000  0.0000  0.3333)
     This is a supercell, fractional translation are disabled
 
   Stick Mesh
   ----------
   nst =  7177,  nstw =   793, nsts =  2877
               n.st   n.stw   n.sts    n.g    n.gw   n.gs
   min         112      12      44    6910     256    1735
   max         114      13      45    6918     263    1759
       7177     793    2877  442525   16599  111903
 


     bravais-lattice index     =           14
     lattice parameter (a_0)   =      17.3432  a.u.
     unit-cell volume          =    5043.2518 (a.u.)^3
     number of atoms/cell      =           72
     number of atomic types    =            2
     number of electrons       =       576.00
     number of Kohn-Sham states=          345
     kinetic-energy cutoff     =      30.0000  Ry
     charge density cutoff     =     300.0000  Ry
     convergence threshold     =      1.0E-08
     mixing beta               =       0.3000
     number of iterations used =            8  local-TF  mixing
     Exchange-correlation      = SLA  PW   PBE  PBE (1434)
     EXX-fraction              =        0.00

     celldm(1)=  17.343151  celldm(2)=   1.000000  celldm(3)=   0.966778
     celldm(4)=   0.000000  celldm(5)=   0.000000  celldm(6)=   0.000000

     crystal axes: (cart. coord. in units of a_0)
               a(1) = (   1.000000   0.000000   0.000000 )  
               a(2) = (   0.000000   1.000000   0.000000 )  
               a(3) = (   0.000000   0.000000   0.966778 )  

     reciprocal axes: (cart. coord. in units 2 pi/a_0)
               b(1) = (  1.000000  0.000000  0.000000 )  
               b(2) = (  0.000000  1.000000  0.000000 )  
               b(3) = (  0.000000  0.000000  1.034364 )  


     PseudoPot. # 1 for O  read from file O.pbe-van_bm.UPF
     MD5 check sum: ca2828d9fb1f294809e918903b7648d1
     Pseudo is Ultrasoft, Zval =  6.0
     Generated by new atomic code, or converted to UPF format
     Using radial grid of  737 points,  4 beta functions with: 
                l(1) =   0
                l(2) =   0
                l(3) =   1
                l(4) =   1
     Q(r) pseudized with  8 coefficients,  rinner =    0.800   0.800   0.800


     PseudoPot. # 2 for Ti read from file Ti.pbe-van-yufengl.UPF
     MD5 check sum: c6a5a6e2bd61e71584bd4e9d5b89d6cc
     Pseudo is Ultrasoft, Zval = 12.0
     Generated by new atomic code, or converted to UPF format
     Using radial grid of  851 points,  6 beta functions with: 
                l(1) =   0
                l(2) =   0
                l(3) =   1
                l(4) =   1
                l(5) =   2
                l(6) =   2
     Q(r) pseudized with  6 coefficients,  rinner =    0.700   0.700   0.700
                                                       0.700   0.700

     atomic species   valence    mass     pseudopotential
        O              6.00    15.99900     O ( 1.00)
        Ti            12.00    47.86700     Ti( 1.00)

     Starting magnetic structure 
     atomic species   magnetization
        O            0.000
        Ti           0.010

      8 Sym.Ops. (with inversion)


   Cartesian axes

     site n.     atom                  positions (a_0 units)
         1           Ti  tau(  1) = (   0.0000000   0.0000000   0.0000000  )
         2           Ti  tau(  2) = (   0.0000000   0.0000000   0.3222585  )
         3           Ti  tau(  3) = (   0.0000000   0.0000000   0.6445171  )
         4           Ti  tau(  4) = (   0.0000000   0.4999978   0.0000000  )
         5           Ti  tau(  5) = (   0.0000000   0.4999978   0.3222585  )
         6           Ti  tau(  6) = (   0.0000000   0.4999978   0.6445171  )
         7           Ti  tau(  7) = (   0.4999978   0.0000000   0.0000000  )
         8           Ti  tau(  8) = (   0.4999978   0.0000000   0.3222585  )
         9           Ti  tau(  9) = (   0.4999978   0.0000000   0.6445171  )
        10           Ti  tau( 10) = (   0.4999978   0.4999978   0.0000000  )
        11           Ti  tau( 11) = (   0.4999978   0.4999978   0.3222585  )
        12           Ti  tau( 12) = (   0.4999978   0.4999978   0.6445171  )
        13           Ti  tau( 13) = (   0.2499989   0.2499989   0.1611293  )
        14           Ti  tau( 14) = (   0.2499989   0.2499989   0.4833878  )
        15           Ti  tau( 15) = (   0.2499989   0.2499989   0.8056464  )
        16           Ti  tau( 16) = (   0.2499989   0.7499967   0.1611293  )
        17           Ti  tau( 17) = (   0.2499989   0.7499967   0.4833878  )
        18           Ti  tau( 18) = (   0.2499989   0.7499967   0.8056464  )
        19           Ti  tau( 19) = (   0.7499967   0.2499989   0.1611293  )
        20           Ti  tau( 20) = (   0.7499967   0.2499989   0.4833878  )
        21           Ti  tau( 21) = (   0.7499967   0.2499989   0.8056464  )
        22           Ti  tau( 22) = (   0.7499967   0.7499967   0.1611293  )
        23           Ti  tau( 23) = (   0.7499967   0.7499967   0.4833878  )
        24           Ti  tau( 24) = (   0.7499967   0.7499967   0.8056464  )
        25           O   tau( 25) = (   0.1511643   0.1511643   0.0000000  )
        26           O   tau( 26) = (   0.1511643   0.1511643   0.3222585  )
        27           O   tau( 27) = (   0.1511643   0.1511643   0.6445171  )
        28           O   tau( 28) = (   0.1511643   0.6511621   0.0000000  )
        29           O   tau( 29) = (   0.1511643   0.6511621   0.3222585  )
        30           O   tau( 30) = (   0.1511643   0.6511621   0.6445171  )
        31           O   tau( 31) = (   0.6511621   0.1511643   0.0000000  )
        32           O   tau( 32) = (   0.6511621   0.1511643   0.3222585  )
        33           O   tau( 33) = (   0.6511621   0.1511643   0.6445171  )
        34           O   tau( 34) = (   0.6511621   0.6511621   0.0000000  )
        35           O   tau( 35) = (   0.6511621   0.6511621   0.3222585  )
        36           O   tau( 36) = (   0.6511621   0.6511621   0.6445171  )
        37           O   tau( 37) = (   0.3488335   0.3488335   0.0000000  )
        38           O   tau( 38) = (   0.3488335   0.3488335   0.3222585  )
        39           O   tau( 39) = (   0.3488335   0.3488335   0.6445171  )
        40           O   tau( 40) = (   0.3488335   0.8488313   0.0000000  )
        41           O   tau( 41) = (   0.3488335   0.8488313   0.3222585  )
        42           O   tau( 42) = (   0.3488335   0.8488313   0.6445171  )
        43           O   tau( 43) = (   0.8488313   0.3488335   0.0000000  )
        44           O   tau( 44) = (   0.8488313   0.3488335   0.3222585  )
        45           O   tau( 45) = (   0.8488313   0.3488335   0.6445171  )
        46           O   tau( 46) = (   0.8488313   0.8488313   0.0000000  )
        47           O   tau( 47) = (   0.8488313   0.8488313   0.3222585  )
        48           O   tau( 48) = (   0.8488313   0.8488313   0.6445171  )
        49           O   tau( 49) = (   0.0988346   0.4011633   0.1611293  )
        50           O   tau( 50) = (   0.0988346   0.4011633   0.4833878  )
        51           O   tau( 51) = (   0.0988346   0.4011633   0.8056464  )
        52           O   tau( 52) = (   0.0988346   0.9011611   0.1611293  )
        53           O   tau( 53) = (   0.0988346   0.9011611   0.4833878  )
        54           O   tau( 54) = (   0.0988346   0.9011611   0.8056464  )
        55           O   tau( 55) = (   0.5988324   0.4011633   0.1611293  )
        56           O   tau( 56) = (   0.5988324   0.4011633   0.4833878  )
        57           O   tau( 57) = (   0.5988324   0.4011633   0.8056464  )
        58           O   tau( 58) = (   0.5988324   0.9011611   0.1611293  )
        59           O   tau( 59) = (   0.5988324   0.9011611   0.4833878  )
        60           O   tau( 60) = (   0.5988324   0.9011611   0.8056464  )
        61           O   tau( 61) = (   0.4011633   0.0988346   0.1611293  )
        62           O   tau( 62) = (   0.4011633   0.0988346   0.4833878  )
        63           O   tau( 63) = (   0.4011633   0.0988346   0.8056464  )
        64           O   tau( 64) = (   0.4011633   0.5988324   0.1611293  )
        65           O   tau( 65) = (   0.4011633   0.5988324   0.4833878  )
        66           O   tau( 66) = (   0.4011633   0.5988324   0.8056464  )
        67           O   tau( 67) = (   0.9011611   0.0988346   0.1611293  )
        68           O   tau( 68) = (   0.9011611   0.0988346   0.4833878  )
        69           O   tau( 69) = (   0.9011611   0.0988346   0.8056464  )
        70           O   tau( 70) = (   0.9011611   0.5988324   0.1611293  )
        71           O   tau( 71) = (   0.9011611   0.5988324   0.4833878  )
        72           O   tau( 72) = (   0.9011611   0.5988324   0.8056464  )

     number of k points=    12  Fermi-Dirac smearing, width (Ry)=  0.0019
                       cart. coord. in units 2pi/a_0
        k(    1) = (   0.0000000   0.0000000   0.0000000), wk =   0.1250000
        k(    2) = (   0.0000000   0.0000000  -0.5171819), wk =   0.1250000
        k(    3) = (   0.0000000  -0.5000000   0.0000000), wk =   0.2500000
        k(    4) = (   0.0000000  -0.5000000  -0.5171819), wk =   0.2500000
        k(    5) = (  -0.5000000  -0.5000000   0.0000000), wk =   0.1250000
        k(    6) = (  -0.5000000  -0.5000000  -0.5171819), wk =   0.1250000
        k(    7) = (   0.0000000   0.0000000   0.0000000), wk =   0.1250000
        k(    8) = (   0.0000000   0.0000000  -0.5171819), wk =   0.1250000
        k(    9) = (   0.0000000  -0.5000000   0.0000000), wk =   0.2500000
        k(   10) = (   0.0000000  -0.5000000  -0.5171819), wk =   0.2500000
        k(   11) = (  -0.5000000  -0.5000000   0.0000000), wk =   0.1250000
        k(   12) = (  -0.5000000  -0.5000000  -0.5171819), wk =   0.1250000

     G cutoff = 2285.6909  ( 442525 G-vectors)     FFT grid: ( 96, 96, 96)
     G cutoff =  914.2764  ( 111903 G-vectors)  smooth grid: ( 64, 64, 60)

     Largest allocated arrays     est. size (Mb)     dimensions
        Kohn-Sham Wavefunctions         1.17 Mb     (    223, 345)
        NL pseudopotentials             2.78 Mb     (    223, 816)
        Each V/rho on FFT grid          0.56 Mb     (  18432,   2)
        Each G-vector array             0.05 Mb     (   6911)
        G-vector shells                 0.03 Mb     (   3325)
     Largest temporary arrays     est. size (Mb)     dimensions
        Auxiliary wavefunctions         4.70 Mb     (    223,1380)
        Each subspace H/S matrix       29.06 Mb     (   1380,1380)
        Each <psi_i|beta_j> matrix      4.30 Mb     (    816, 345)
        Arrays for rho mixing           2.25 Mb     (  18432,   8)

     Initial potential from superposition of free atoms

     starting charge  575.96021, renormalised to  576.00000
     Starting wfc are  432 atomic wfcs

     total cpu time spent up to now is     14.95 secs

     per-process dynamical memory:    67.0 Mb

     Self-consistent Calculation

     iteration #  1     ecut=    30.00 Ry     beta=0.30
     Davidson diagonalization with overlap
     ethr =  1.00E-02,  avg # of iterations =  2.0

     total cpu time spent up to now is     45.59 secs

     total energy              =   -4344.20980527 Ry
     Harris-Foulkes estimate   =   -4350.89459381 Ry
     estimated scf accuracy    <      32.94777437 Ry

     total magnetization       =    -0.00 Bohr mag/cell
     absolute magnetization    =     0.28 Bohr mag/cell

     iteration #  2     ecut=    30.00 Ry     beta=0.30
     Davidson diagonalization with overlap
     ethr =  5.72E-03,  avg # of iterations =  1.0

     total cpu time spent up to now is     72.65 secs

     total energy              =   -4339.76017454 Ry
     Harris-Foulkes estimate   =   -4345.30879311 Ry
     estimated scf accuracy    <      12.79794625 Ry

     total magnetization       =    -0.00 Bohr mag/cell
     absolute magnetization    =     0.29 Bohr mag/cell

     iteration #  3     ecut=    30.00 Ry     beta=0.30
     Davidson diagonalization with overlap
     ethr =  2.22E-03,  avg # of iterations =  3.2

     total cpu time spent up to now is    117.94 secs

     total energy              =   -4342.55117928 Ry
     Harris-Foulkes estimate   =   -4343.76570624 Ry
     estimated scf accuracy    <       3.19923072 Ry

     total magnetization       =     0.00 Bohr mag/cell
     absolute magnetization    =     0.29 Bohr mag/cell

     iteration #  4     ecut=    30.00 Ry     beta=0.30
     Davidson diagonalization with overlap
     ethr =  5.55E-04,  avg # of iterations =  3.2

     total cpu time spent up to now is    160.39 secs

     total energy              =   -4343.22061689 Ry
     Harris-Foulkes estimate   =   -4343.35599817 Ry
     estimated scf accuracy    <       0.60823533 Ry

     total magnetization       =     0.00 Bohr mag/cell
     absolute magnetization    =     0.24 Bohr mag/cell

     iteration #  5     ecut=    30.00 Ry     beta=0.30
     Davidson diagonalization with overlap
     ethr =  1.06E-04,  avg # of iterations =  3.0

     total cpu time spent up to now is    196.90 secs

     total energy              =   -4343.29222700 Ry
     Harris-Foulkes estimate   =   -4343.29197904 Ry
     estimated scf accuracy    <       0.00702091 Ry

     total magnetization       =    -0.00 Bohr mag/cell
     absolute magnetization    =     0.05 Bohr mag/cell

     iteration #  6     ecut=    30.00 Ry     beta=0.30
     Davidson diagonalization with overlap
     ethr =  1.22E-06,  avg # of iterations =  5.7

     total cpu time spent up to now is    277.98 secs

     total energy              =   -4343.29436226 Ry
     Harris-Foulkes estimate   =   -4343.30341789 Ry
     estimated scf accuracy    <       0.04045061 Ry

     total magnetization       =    -0.00 Bohr mag/cell
     absolute magnetization    =     0.02 Bohr mag/cell

     iteration #  7     ecut=    30.00 Ry     beta=0.30
     Davidson diagonalization with overlap
     ethr =  1.22E-06,  avg # of iterations =  3.3

     total cpu time spent up to now is    327.87 secs

     total energy              =   -4343.29837216 Ry
     Harris-Foulkes estimate   =   -4343.29813500 Ry
     estimated scf accuracy    <       0.00167036 Ry

     total magnetization       =    -0.00 Bohr mag/cell
     absolute magnetization    =     0.01 Bohr mag/cell

     iteration #  8     ecut=    30.00 Ry     beta=0.30
     Davidson diagonalization with overlap
     ethr =  2.90E-07,  avg # of iterations =  1.0

     total cpu time spent up to now is    355.23 secs

     total energy              =   -4343.29853060 Ry
     Harris-Foulkes estimate   =   -4343.29843184 Ry
     estimated scf accuracy    <       0.00056569 Ry

     total magnetization       =     0.00 Bohr mag/cell
     absolute magnetization    =     0.01 Bohr mag/cell

     iteration #  9     ecut=    30.00 Ry     beta=0.30
     Davidson diagonalization with overlap
     ethr =  9.82E-08,  avg # of iterations =  3.0

     total cpu time spent up to now is    394.19 secs

     total energy              =   -4343.29878173 Ry
     Harris-Foulkes estimate   =   -4343.29867767 Ry
     estimated scf accuracy    <       0.00004576 Ry

     total magnetization       =    -0.00 Bohr mag/cell
     absolute magnetization    =     0.00 Bohr mag/cell

     iteration # 10     ecut=    30.00 Ry     beta=0.30
     Davidson diagonalization with overlap
     ethr =  7.94E-09,  avg # of iterations =  2.0

     total cpu time spent up to now is    424.84 secs

     total energy              =   -4343.29883652 Ry
     Harris-Foulkes estimate   =   -4343.29878389 Ry
     estimated scf accuracy    <       0.00002062 Ry

     total magnetization       =    -0.00 Bohr mag/cell
     absolute magnetization    =     0.00 Bohr mag/cell

     iteration # 11     ecut=    30.00 Ry     beta=0.30
     Davidson diagonalization with overlap
     ethr =  3.58E-09,  avg # of iterations =  2.7

     total cpu time spent up to now is    459.27 secs

     total energy              =   -4343.29886467 Ry
     Harris-Foulkes estimate   =   -4343.29883798 Ry
     estimated scf accuracy    <       0.00000375 Ry

     total magnetization       =     0.00 Bohr mag/cell
     absolute magnetization    =     0.00 Bohr mag/cell

     iteration # 12     ecut=    30.00 Ry     beta=0.30
     Davidson diagonalization with overlap
     ethr =  6.51E-10,  avg # of iterations =  2.8

     total cpu time spent up to now is    492.63 secs

     total energy              =   -4343.29887713 Ry
     Harris-Foulkes estimate   =   -4343.29886483 Ry
     estimated scf accuracy    <       0.00000296 Ry

     total magnetization       =     0.00 Bohr mag/cell
     absolute magnetization    =     0.00 Bohr mag/cell

     iteration # 13     ecut=    30.00 Ry     beta=0.30
     Davidson diagonalization with overlap
     ethr =  5.14E-10,  avg # of iterations =  3.0

     total cpu time spent up to now is    529.93 secs

     total energy              =   -4343.29888389 Ry
     Harris-Foulkes estimate   =   -4343.29887752 Ry
     estimated scf accuracy    <       0.00000007 Ry

     total magnetization       =    -0.00 Bohr mag/cell
     absolute magnetization    =     0.00 Bohr mag/cell

     iteration # 14     ecut=    30.00 Ry     beta=0.30
     Davidson diagonalization with overlap
     ethr =  1.23E-11,  avg # of iterations =  3.8

     total cpu time spent up to now is    578.00 secs

     total energy              =   -4343.29888705 Ry
     Harris-Foulkes estimate   =   -4343.29888393 Ry
     estimated scf accuracy    <       0.00000003 Ry

     total magnetization       =    -0.00 Bohr mag/cell
     absolute magnetization    =     0.00 Bohr mag/cell

     iteration # 15     ecut=    30.00 Ry     beta=0.30
     Davidson diagonalization with overlap
     ethr =  4.57E-12,  avg # of iterations =  3.0

     total cpu time spent up to now is    617.13 secs

     total energy              =   -4343.29888861 Ry
     Harris-Foulkes estimate   =   -4343.29888710 Ry
     estimated scf accuracy    <       0.00000003 Ry

     total magnetization       =    -0.00 Bohr mag/cell
     absolute magnetization    =     0.00 Bohr mag/cell

     iteration # 16     ecut=    30.00 Ry     beta=0.30
     Davidson diagonalization with overlap
     ethr =  4.56E-12,  avg # of iterations =  3.0

     total cpu time spent up to now is    659.51 secs

     total energy              =   -4343.29888943 Ry
     Harris-Foulkes estimate   =   -4343.29888868 Ry
     estimated scf accuracy    <       0.00000003 Ry

     total magnetization       =    -0.00 Bohr mag/cell
     absolute magnetization    =     0.00 Bohr mag/cell

     iteration # 17     ecut=    30.00 Ry     beta=0.30
     Davidson diagonalization with overlap
     ethr =  4.56E-12,  avg # of iterations =  3.0

     total cpu time spent up to now is    697.55 secs

     total energy              =   -4343.29888990 Ry
     Harris-Foulkes estimate   =   -4343.29888952 Ry
     estimated scf accuracy    <       0.00000002 Ry

     total magnetization       =     0.00 Bohr mag/cell
     absolute magnetization    =     0.00 Bohr mag/cell

     iteration # 18     ecut=    30.00 Ry     beta=0.30
     Davidson diagonalization with overlap
     ethr =  2.76E-12,  avg # of iterations =  3.8

     total cpu time spent up to now is    752.02 secs

     End of self-consistent calculation

 ------ SPIN UP ------------


          k = 0.0000 0.0000 0.0000 ( 13937 PWs)   bands (ev):

   -47.6963 -47.6880 -47.6875 -47.6874 -47.6874 -47.6873 -47.6867 -47.6786
   -47.6619 -47.6618 -47.6582 -47.6576 -47.6576 -47.6575 -47.6575 -47.6574
   -47.6572 -47.6572 -47.6571 -47.6570 -47.6569 -47.6563 -47.6530 -47.6528
   -24.1510 -24.1510 -24.1509 -24.1509 -24.1506 -24.1506 -24.1505 -24.1504
   -24.1441 -24.1440 -24.1362 -24.1361 -24.1358 -24.1356 -24.1292 -24.1291
   -24.0379 -24.0378 -24.0248 -24.0248 -23.9637 -23.9637 -23.9636 -23.9636
   -23.9388 -23.9388 -23.9387 -23.9386 -23.9313 -23.9312 -23.9311 -23.9311
   -23.9241 -23.9241 -23.9240 -23.9240 -23.8871 -23.8871 -23.8870 -23.8870
   -23.8867 -23.8867 -23.8865 -23.8865 -23.8805 -23.8805 -23.8804 -23.8804
   -23.8801 -23.8801 -23.8799 -23.8799 -23.8586 -23.8586 -23.8505 -23.8505
   -23.8489 -23.8488 -23.8488 -23.8486 -23.8455 -23.8454 -23.8454 -23.8453
   -23.8186 -23.8017 -23.8012 -23.8011 -23.8011 -23.8010 -23.8004 -23.7838
    -9.0922  -8.4178  -8.4177  -8.3327  -8.3327  -8.3322  -8.3322  -8.1912
    -8.1910  -7.9704  -7.9704  -7.9702  -7.9702  -7.9698  -7.9698  -7.9696
    -7.9696  -7.9120  -7.7619  -7.7617  -7.7614  -7.7612  -7.6683  -7.6682
    -7.6678  -7.6677  -7.5658  -7.5656  -7.5653  -7.5651  -7.5465  -7.5464
    -7.4666  -7.4666  -7.4664  -7.4664  -7.4660  -7.4660  -7.4658  -7.4658
    -7.4486  -7.4486  -7.4481  -7.4481  -7.3291  -7.3291  -7.1971  -7.1971
     3.4166   3.6405   3.6405   3.8398   4.2295   4.3200   4.3200   4.3201
     4.3201   4.4421   4.4421   4.4424   4.4425   4.5131   4.5133   4.5135
     4.5137   4.5810   4.5812   4.6324   4.6324   4.6325   4.6325   4.6329
     4.6329   4.6329   4.6329   4.6396   4.6397   4.9201   4.9201   4.9202
     4.9202   4.9204   4.9204   4.9205   4.9205   5.1652   5.1652   5.1654
     5.1654   5.3465   5.3465   5.4206   5.4206   5.4325   5.4326   5.4535
     5.4537   5.4896   5.4896   5.4898   5.4898   5.7227   5.7227   5.7229
     5.7229   5.7232   5.7232   5.7234   5.7234   5.9099   5.9099   5.9103
     5.9104   5.9240   5.9240   5.9241   5.9241   6.0811   6.0811   6.0815
     6.0815   6.1276   6.1277   6.3631   6.3631   6.4797   6.4797   6.4798
     6.4798   6.4803   6.4803   6.4804   6.4804   6.6447   6.6448   6.8771
     6.8773   6.8775   6.8776   7.0079   7.0080   7.1419   7.1421   7.1422
     7.1422   7.1994   7.3824   7.3824   7.3824   7.3824   7.3824   7.3824
     7.3825   7.3825   7.5302   7.5302   7.5304   7.5304   7.6251   7.6254
     7.6256   7.6258   7.6553   7.6554   7.6557   7.6558   7.8909   7.8909
     8.0999   8.0999   8.1917   8.1918   8.2197   8.2197   8.2198   8.2199
     8.2201   8.2201   8.2202   8.2202   8.2504   8.2504   8.2507   8.2508
     8.4937   8.4938   8.4945   8.4946   8.5119   8.7607   8.7607   9.2591
    11.0499  11.0716  11.0717  11.2951  11.4840  11.4840  11.4840  11.4840
    11.4844  11.4844  11.4844  11.4844  11.5778  11.6078  11.6080  11.7029
    11.7030  11.7059  11.7059  11.7060  11.7060  11.7280  11.7281  11.9282
    11.9283  12.1717  12.1718  12.1720  12.1721  12.2025  12.2026  12.2029
    12.2031  12.2332  12.2332  12.2335  12.2337  12.2720  12.2720  12.2721
    12.2721  12.3584  12.3586  12.4583  12.4583  12.4584  12.4584  12.4586
    12.4586  12.4588  12.4588  12.6113  12.6114  12.6117  12.6118  12.7780
    12.7780

          k = 0.0000 0.0000-0.5172 ( 13998 PWs)   bands (ev):

   -47.6853 -47.6849 -47.6783 -47.6777 -47.6777 -47.6776 -47.6776 -47.6775
   -47.6773 -47.6773 -47.6772 -47.6771 -47.6770 -47.6764 -47.6700 -47.6696
   -47.6482 -47.6474 -47.6473 -47.6473 -47.6472 -47.6472 -47.6472 -47.6462
   -24.2565 -24.2565 -24.2565 -24.2565 -24.2444 -24.2443 -24.2435 -24.2434
   -24.0074 -24.0074 -24.0070 -24.0069 -23.9957 -23.9957 -23.9953 -23.9952
   -23.9553 -23.9553 -23.9552 -23.9552 -23.9552 -23.9552 -23.9551 -23.9551
   -23.9329 -23.9329 -23.9329 -23.9329 -23.9326 -23.9326 -23.9324 -23.9324
   -23.9297 -23.9292 -23.9151 -23.9150 -23.9147 -23.9145 -23.9011 -23.9006
   -23.8907 -23.8907 -23.8883 -23.8883 -23.8797 -23.8797 -23.8797 -23.8797
   -23.8796 -23.8796 -23.8796 -23.8796 -23.8773 -23.8773 -23.8772 -23.8772
   -23.8585 -23.8584 -23.8570 -23.8568 -23.8558 -23.8558 -23.8557 -23.8553
   -23.8539 -23.8538 -23.8534 -23.8534 -23.8469 -23.8469 -23.8464 -23.8464
    -8.8187  -8.8182  -8.2025  -8.2023  -8.2020  -8.2018  -8.1442  -8.1442
    -8.1437  -8.1437  -8.1436  -8.1436  -8.1431  -8.1431  -8.0255  -8.0255
    -8.0255  -8.0255  -7.7814  -7.7814  -7.7680  -7.7676  -7.6874  -7.6874
    -7.6523  -7.6522  -7.5350  -7.5349  -7.5267  -7.5267  -7.5263  -7.5263
    -7.5261  -7.5261  -7.5256  -7.5256  -7.4421  -7.4419  -7.4416  -7.4414
    -7.3206  -7.3204  -7.3201  -7.3200  -7.2857  -7.2857  -7.2856  -7.2856
     3.8012   3.8017   3.9456   3.9458   3.9461   3.9463   4.1209   4.1214
     4.1240   4.1240   4.1240   4.1240   4.4400   4.4401   4.5466   4.5471
     4.5976   4.5978   4.6346   4.6346   4.6349   4.6349   4.6351   4.6351
     4.6354   4.6354   4.6713   4.6713   4.7766   4.7766   4.7767   4.7768
     5.0721   5.0721   5.0721   5.0721   5.0721   5.0721   5.0722   5.0722
     5.1302   5.1302   5.1303   5.1303   5.1631   5.1631   5.1633   5.1633
     5.4653   5.4654   5.5811   5.5811   5.6585   5.6586   5.8666   5.8666
     5.8667   5.8667   5.8668   5.8668   5.8669   5.8669   5.9034   5.9034
     5.9034   5.9034   6.4114   6.4115   6.4458   6.4458   6.4530   6.4530
     6.4530   6.4530   6.4536   6.4536   6.4536   6.4536   6.4583   6.4587
     6.7881   6.7882   6.8333   6.8333   6.8333   6.8333   7.0316   7.0316
     7.0316   7.0316   7.0318   7.0318   7.0318   7.0319   7.0631   7.0633
     7.0635   7.0637   7.1322   7.1322   7.1324   7.1325   7.1893   7.1893
     7.1893   7.1893   7.1923   7.1924   7.1928   7.1929   7.2014   7.2016
     7.2017   7.2018   7.5177   7.5181   7.7604   7.7606   7.7608   7.7609
     7.8025   7.8026   7.8895   7.8895   8.1740   8.1740   8.1740   8.1740
     8.2306   8.2307   8.2310   8.2310   8.5365   8.5365   8.5369   8.5369
     8.5372   8.5372   8.5375   8.5375   8.5739   8.5739   9.0674   9.0678
    11.1263  11.1263  11.1263  11.1263  11.4620  11.4625  11.5324  11.5325
    11.5328  11.5329  11.5375  11.5380  11.6258  11.6262  11.8555  11.8556
    11.8791  11.8791  11.8792  11.8792  11.8792  11.8792  11.8793  11.8793
    11.9008  11.9008  11.9011  11.9013  12.0308  12.0309  12.0311  12.0312
    12.2397  12.2398  12.2952  12.2952  12.2953  12.2953  12.2954  12.2954
    12.2955  12.2955  12.3908  12.3910  12.4176  12.4176  12.4349  12.4349
    12.4349  12.4349  12.4581  12.4581  12.7976  12.7988  12.7988  12.7991
    12.7991

          k = 0.0000-0.5000 0.0000 ( 14026 PWs)   bands (ev):

   -47.6939 -47.6934 -47.6878 -47.6874 -47.6874 -47.6869 -47.6814 -47.6809
   -47.6608 -47.6607 -47.6603 -47.6602 -47.6580 -47.6575 -47.6574 -47.6574
   -47.6572 -47.6571 -47.6571 -47.6565 -47.6545 -47.6544 -47.6540 -47.6538
   -24.1498 -24.1497 -24.1493 -24.1492 -24.1444 -24.1439 -24.1438 -24.1438
   -24.1435 -24.1435 -24.1435 -24.1429 -24.1386 -24.1385 -24.1382 -24.1380
   -24.0121 -24.0119 -24.0116 -24.0114 -24.0042 -24.0038 -24.0025 -24.0020
   -23.9204 -23.9203 -23.9202 -23.9202 -23.9199 -23.9199 -23.9198 -23.9197
   -23.9174 -23.9172 -23.9169 -23.9167 -23.9138 -23.9137 -23.9134 -23.9132
   -23.8836 -23.8831 -23.8817 -23.8813 -23.8766 -23.8765 -23.8761 -23.8760
   -23.8598 -23.8597 -23.8593 -23.8592 -23.8568 -23.8567 -23.8564 -23.8563
   -23.8556 -23.8554 -23.8554 -23.8553 -23.8550 -23.8550 -23.8550 -23.8548
   -23.8137 -23.8132 -23.8015 -23.8011 -23.8011 -23.8006 -23.7891 -23.7886
    -8.8734  -8.8726  -8.3781  -8.3775  -8.3774  -8.3769  -8.1294  -8.1292
    -8.1287  -8.1285  -7.9304  -7.9299  -7.8983  -7.8981  -7.8977  -7.8975
    -7.8975  -7.8973  -7.8969  -7.8967  -7.7598  -7.7596  -7.7595  -7.7593
    -7.5363  -7.5360  -7.5356  -7.5355  -7.5354  -7.5353  -7.5353  -7.5351
    -7.5349  -7.5348  -7.5346  -7.5343  -7.4473  -7.4471  -7.4470  -7.4468
    -7.3974  -7.3969  -7.3871  -7.3866  -7.3864  -7.3859  -7.2816  -7.2808
     3.7984   3.7991   3.9369   3.9373   3.9376   3.9380   4.0886   4.0892
     4.4718   4.4720   4.4722   4.4723   4.4724   4.4725   4.4727   4.4729
     4.6195   4.6195   4.6196   4.6196   4.6548   4.6555   4.7217   4.7217
     4.7221   4.7222   4.7827   4.7828   4.7829   4.7832   4.7832   4.7836
     4.7836   4.7838   4.7981   4.7982   4.7983   4.7983   5.0841   5.0842
     5.0843   5.0843   5.4136   5.4141   5.4142   5.4147   5.4469   5.4475
     5.4629   5.4634   5.5993   5.5993   5.5995   5.5995   5.6922   5.6923
     5.6930   5.6931   5.7468   5.7469   5.7470   5.7471   5.7473   5.7474
     5.7475   5.7476   5.9071   5.9076   5.9076   5.9081   6.1850   6.1851
     6.1852   6.1853   6.2748   6.2754   6.4851   6.4857   6.8246   6.8247
     6.8247   6.8249   6.8250   6.8253   6.8254   6.8254   6.9512   6.9512
     6.9516   6.9516   6.9788   6.9788   6.9793   6.9793   7.1463   7.1463
     7.1468   7.1469   7.2351   7.2356   7.3848   7.3851   7.3853   7.3854
     7.3854   7.3854   7.3856   7.3859   7.5622   7.5623   7.5625   7.5626
     7.7083   7.7088   7.7089   7.7094   7.7461   7.7462   7.7468   7.7469
     7.7657   7.7663   8.1143   8.1149   8.1150   8.1156   8.1325   8.1331
     8.2765   8.2767   8.2770   8.2770   8.2772   8.2772   8.2776   8.2777
     8.3974   8.3981   8.4087   8.4089   8.4093   8.4094   9.0148   9.0155
    11.3422  11.3423  11.3424  11.3425  11.3435  11.3440  11.4373  11.4377
    11.4377  11.4382  11.6345  11.6350  11.6833  11.6833  11.6837  11.6837
    11.6838  11.6838  11.6841  11.6842  11.9469  11.9473  11.9940  11.9944
    11.9944  11.9949  11.9992  11.9997  12.0257  12.0261  12.1289  12.1290
    12.1290  12.1290  12.1883  12.1884  12.1886  12.1887  12.3050  12.3055
    12.3055  12.3056  12.3057  12.3058  12.3059  12.3064  12.4197  12.4198
    12.4202  12.4203  12.7681  12.7681  12.7685  12.7685  12.7685  12.7687
    12.7690

          k = 0.0000-0.5000-0.5172 ( 13952 PWs)   bands (ev):

   -47.6833 -47.6828 -47.6828 -47.6824 -47.6781 -47.6776 -47.6775 -47.6775
   -47.6773 -47.6772 -47.6772 -47.6766 -47.6725 -47.6720 -47.6720 -47.6715
   -47.6482 -47.6474 -47.6473 -47.6473 -47.6472 -47.6472 -47.6472 -47.6462
   -24.2513 -24.2506 -24.2505 -24.2503 -24.2502 -24.2502 -24.2501 -24.2493
   -23.9885 -23.9884 -23.9881 -23.9880 -23.9880 -23.9880 -23.9877 -23.9875
   -23.9854 -23.9851 -23.9851 -23.9847 -23.9769 -23.9764 -23.9764 -23.9759
   -23.9210 -23.9208 -23.9207 -23.9205 -23.9188 -23.9184 -23.9184 -23.9184
   -23.9183 -23.9182 -23.9182 -23.9182 -23.9180 -23.9180 -23.9179 -23.9176
   -23.8843 -23.8838 -23.8837 -23.8834 -23.8829 -23.8826 -23.8826 -23.8819
   -23.8706 -23.8702 -23.8702 -23.8698 -23.8623 -23.8621 -23.8619 -23.8619
   -23.8618 -23.8618 -23.8616 -23.8615 -23.8614 -23.8613 -23.8613 -23.8610
   -23.8578 -23.8572 -23.8571 -23.8568 -23.8566 -23.8564 -23.8563 -23.8556
    -8.6265  -8.6260  -8.6257  -8.6251  -8.1753  -8.1749  -8.1749  -8.1747
    -8.1743  -8.1741  -8.1741  -8.1737  -7.9330  -7.9327  -7.9323  -7.9320
    -7.9244  -7.9244  -7.9237  -7.9236  -7.7581  -7.7577  -7.7576  -7.7572
    -7.5152  -7.5148  -7.5147  -7.5143  -7.4832  -7.4829  -7.4828  -7.4826
    -7.4823  -7.4821  -7.4820  -7.4816  -7.4018  -7.4018  -7.4011  -7.4010
    -7.3862  -7.3858  -7.3854  -7.3850  -7.3818  -7.3815  -7.3811  -7.3807
     4.1213   4.1218   4.1220   4.1225   4.2063   4.2066   4.2071   4.2072
     4.2401   4.2402   4.2404   4.2406   4.2409   4.2411   4.2413   4.2414
     4.3892   4.3897   4.3899   4.3904   4.4203   4.4204   4.4210   4.4212
     4.7250   4.7253   4.7253   4.7256   4.8765   4.8765   4.8767   4.8768
     4.8771   4.8772   4.8773   4.8774   4.9738   4.9740   4.9743   4.9744
     5.0618   5.0622   5.0622   5.0625   5.1121   5.1122   5.1128   5.1129
     5.5009   5.5009   5.5011   5.5011   5.7121   5.7122   5.7122   5.7123
     5.9173   5.9174   5.9174   5.9176   6.2949   6.2952   6.2955   6.2958
     6.3305   6.3307   6.3309   6.3309   6.3310   6.3310   6.3311   6.3313
     6.5673   6.5676   6.5678   6.5680   6.5744   6.5745   6.5750   6.5750
     6.5830   6.5831   6.5831   6.5832   6.9069   6.9069   6.9070   6.9071
     6.9073   6.9074   6.9075   6.9076   7.0028   7.0029   7.0034   7.0036
     7.0582   7.0582   7.0586   7.0586   7.2655   7.2657   7.2658   7.2659
     7.2660   7.2661   7.2663   7.2664   7.3900   7.3901   7.3903   7.3904
     7.6163   7.6165   7.6169   7.6171   7.6641   7.6644   7.6647   7.6648
     8.0167   8.0168   8.0169   8.0170   8.1166   8.1170   8.1172   8.1173
     8.1175   8.1176   8.1178   8.1182   8.1789   8.1792   8.1795   8.1798
     8.3499   8.3504   8.3504   8.3509   8.8688   8.8692   8.8695   8.8700
    11.3979  11.3981  11.3984  11.3985  11.5706  11.5708  11.5708  11.5710
    11.6920  11.6922  11.6924  11.6926  11.7715  11.7718  11.7719  11.7719
    11.7720  11.7721  11.7721  11.7724  11.8818  11.8822  11.8823  11.8827
    11.9068  11.9072  11.9072  11.9077  12.0501  12.0504  12.0505  12.0508
    12.0555  12.0556  12.0556  12.0556  12.0558  12.0559  12.0559  12.0561
    12.3538  12.3539  12.3540  12.3541  12.4265  12.4270  12.4270  12.4275
    12.4448  12.4452  12.4452  12.4458  12.7879  12.7883  12.7885  12.7886
    12.7890

          k =-0.5000-0.5000 0.0000 ( 14028 PWs)   bands (ev):

   -47.6923 -47.6918 -47.6918 -47.6913 -47.6835 -47.6830 -47.6830 -47.6825
   -47.6602 -47.6599 -47.6596 -47.6596 -47.6595 -47.6595 -47.6591 -47.6591
   -47.6556 -47.6555 -47.6552 -47.6552 -47.6550 -47.6550 -47.6547 -47.6544
   -24.1506 -24.1505 -24.1504 -24.1504 -24.1501 -24.1500 -24.1499 -24.1499
   -24.1372 -24.1372 -24.1371 -24.1371 -24.1368 -24.1367 -24.1366 -24.1365
   -24.0313 -24.0313 -24.0313 -24.0313 -23.9644 -23.9644 -23.9643 -23.9643
   -23.9351 -23.9351 -23.9350 -23.9350 -23.9349 -23.9349 -23.9349 -23.9348
   -23.9235 -23.9235 -23.9234 -23.9234 -23.8863 -23.8863 -23.8862 -23.8861
   -23.8861 -23.8861 -23.8860 -23.8860 -23.8809 -23.8809 -23.8808 -23.8808
   -23.8808 -23.8808 -23.8806 -23.8806 -23.8546 -23.8546 -23.8546 -23.8546
   -23.8472 -23.8472 -23.8471 -23.8471 -23.8471 -23.8471 -23.8470 -23.8470
   -23.8103 -23.8098 -23.8098 -23.8093 -23.7929 -23.7924 -23.7924 -23.7919
    -8.7322  -8.7315  -8.7315  -8.7308  -8.0638  -8.0636  -8.0632  -8.0631
    -8.0630  -8.0629  -8.0625  -8.0623  -8.0253  -8.0250  -8.0250  -8.0246
    -7.7431  -7.7430  -7.7429  -7.7429  -7.7428  -7.7427  -7.7427  -7.7425
    -7.6178  -7.6178  -7.6176  -7.6176  -7.6173  -7.6173  -7.6171  -7.6171
    -7.4841  -7.4838  -7.4837  -7.4834  -7.4453  -7.4451  -7.4450  -7.4448
    -7.4447  -7.4445  -7.4444  -7.4442  -7.2644  -7.2644  -7.2644  -7.2644
     3.6279   3.6280   3.6280   3.6282   4.3943   4.3943   4.3943   4.3943
     4.5666   4.5667   4.5668   4.5669   4.5671   4.5672   4.5673   4.5673
     4.6307   4.6308   4.6308   4.6309   4.6311   4.6313   4.6314   4.6314
     4.6358   4.6359   4.6359   4.6361   4.6362   4.6363   4.6363   4.6364
     4.9755   4.9762   4.9762   4.9770   5.0743   5.0744   5.0745   5.0746
     5.0748   5.0748   5.0749   5.0750   5.3599   5.3599   5.3599   5.3599
     5.3603   5.3603   5.3604   5.3604   5.3834   5.3834   5.3835   5.3835
     5.4901   5.4902   5.4903   5.4904   6.0604   6.0604   6.0605   6.0605
     6.1465   6.1465   6.1466   6.1466   6.1469   6.1469   6.1470   6.1470
     6.4402   6.4403   6.4406   6.4408   6.4408   6.4409   6.4412   6.4414
     6.7645   6.7645   6.7646   6.7646   6.7719   6.7719   6.7719   6.7720
     6.7722   6.7722   6.7723   6.7723   7.0960   7.0961   7.0962   7.0962
     7.0964   7.0964   7.0965   7.0965   7.3412   7.3417   7.3417   7.3421
     7.4728   7.4729   7.4729   7.4730   7.6379   7.6379   7.6380   7.6380
     7.6383   7.6383   7.6384   7.6384   7.9203   7.9204   7.9204   7.9205
     7.9208   7.9208   7.9209   7.9209   8.0576   8.0581   8.0581   8.0587
     8.0945   8.0947   8.0947   8.0949   8.5030   8.5032   8.5036   8.5037
     8.5037   8.5038   8.5043   8.5044   8.8097   8.8103   8.8103   8.8109
    11.1097  11.1099  11.1100  11.1102  11.3277  11.3278  11.3279  11.3279
    11.3282  11.3282  11.3283  11.3284  11.7150  11.7150  11.7150  11.7150
    11.7398  11.7401  11.7402  11.7405  12.0960  12.0960  12.0960  12.0960
    12.0961  12.0961  12.0962  12.0962  12.2696  12.2697  12.2697  12.2698
    12.2701  12.2701  12.2702  12.2702  12.2775  12.2775  12.2776  12.2776
    12.3550  12.3554  12.3554  12.3559  12.4110  12.4110  12.4111  12.4111
    12.4113  12.4114  12.4114  12.4115  12.5816  12.5819  12.5820  12.5821
    12.5822

          k =-0.5000-0.5000-0.5172 ( 13984 PWs)   bands (ev):

   -47.6819 -47.6815 -47.6814 -47.6814 -47.6810 -47.6810 -47.6810 -47.6805
   -47.6743 -47.6738 -47.6738 -47.6738 -47.6733 -47.6733 -47.6733 -47.6728
   -47.6482 -47.6474 -47.6473 -47.6473 -47.6472 -47.6472 -47.6472 -47.6462
   -24.2553 -24.2552 -24.2552 -24.2552 -24.2453 -24.2453 -24.2452 -24.2452
   -24.0016 -24.0016 -24.0015 -24.0015 -24.0011 -24.0011 -24.0011 -24.0010
   -23.9507 -23.9507 -23.9507 -23.9506 -23.9505 -23.9505 -23.9505 -23.9505
   -23.9432 -23.9431 -23.9430 -23.9430 -23.9429 -23.9429 -23.9427 -23.9427
   -23.9094 -23.9094 -23.9093 -23.9093 -23.9091 -23.9091 -23.9090 -23.9090
   -23.8895 -23.8895 -23.8895 -23.8895 -23.8799 -23.8799 -23.8799 -23.8799
   -23.8798 -23.8797 -23.8797 -23.8797 -23.8769 -23.8769 -23.8768 -23.8768
   -23.8580 -23.8576 -23.8576 -23.8576 -23.8561 -23.8561 -23.8560 -23.8556
   -23.8504 -23.8504 -23.8504 -23.8504 -23.8499 -23.8499 -23.8499 -23.8499
    -8.4970  -8.4965  -8.4963  -8.4962  -8.4957  -8.4957  -8.4955  -8.4950
    -8.0286  -8.0286  -8.0286  -8.0286  -7.8431  -7.8429  -7.8428  -7.8426
    -7.8426  -7.8424  -7.8423  -7.8421  -7.7350  -7.7350  -7.7350  -7.7350
    -7.5935  -7.5935  -7.5935  -7.5935  -7.5788  -7.5784  -7.5783  -7.5782
    -7.5779  -7.5778  -7.5778  -7.5774  -7.3824  -7.3824  -7.3822  -7.3822
    -7.3819  -7.3819  -7.3817  -7.3817  -7.2823  -7.2823  -7.2823  -7.2823
     3.9391   3.9391   3.9393   3.9394   3.9395   3.9396   3.9398   3.9398
     4.1426   4.1426   4.1427   4.1427   4.7174   4.7175   4.7177   4.7177
     4.7178   4.7178   4.7180   4.7181   4.7248   4.7248   4.7248   4.7248
     4.7252   4.7252   4.7253   4.7254   4.7735   4.7735   4.7735   4.7735
     4.9107   4.9107   4.9107   4.9107   4.9876   4.9876   4.9876   4.9876
     5.0806   5.0806   5.0806   5.0807   5.0807   5.0807   5.0807   5.0807
     5.1364   5.1364   5.1365   5.1365   5.7017   5.7019   5.7022   5.7022
     5.7023   5.7024   5.7026   5.7028   6.1539   6.1540   6.1540   6.1541
     6.1541   6.1541   6.1542   6.1542   6.4200   6.4200   6.4200   6.4200
     6.5651   6.5651   6.5651   6.5651   6.6202   6.6202   6.6202   6.6202
     6.6647   6.6647   6.6648   6.6648   6.6648   6.6648   6.6649   6.6649
     6.9910   6.9910   6.9912   6.9912   6.9913   6.9913   6.9914   6.9914
     7.1467   7.1467   7.1468   7.1468   7.1471   7.1471   7.1471   7.1471
     7.3157   7.3157   7.3157   7.3157   7.7042   7.7042   7.7042   7.7042
     7.8263   7.8263   7.8263   7.8263   7.9868   7.9868   7.9870   7.9870
     7.9872   7.9873   7.9873   7.9873   8.0001   8.0002   8.0002   8.0002
     8.0374   8.0375   8.0375   8.0377   8.0377   8.0378   8.0379   8.0380
     8.5647   8.5651   8.5654   8.5654   8.5658   8.5658   8.5661   8.5665
    11.3414  11.3414  11.3414  11.3414  11.5267  11.5269  11.5270  11.5271
    11.5271  11.5273  11.5274  11.5275  11.6379  11.6379  11.6381  11.6381
    11.6381  11.6382  11.6383  11.6384  11.9801  11.9803  11.9803  11.9803
    11.9805  11.9806  11.9806  11.9808  12.0426  12.0426  12.0426  12.0426
    12.3797  12.3797  12.3797  12.3797  12.4066  12.4066  12.4066  12.4066
    12.4067  12.4067  12.4068  12.4068  12.4351  12.4351  12.4352  12.4352
    12.4481  12.4483  12.4484  12.4484  12.4486  12.4486  12.4487  12.4489
    12.4987

 ------ SPIN DOWN ----------


          k = 0.0000 0.0000 0.0000 ( 13937 PWs)   bands (ev):

   -47.6963 -47.6880 -47.6875 -47.6874 -47.6874 -47.6873 -47.6867 -47.6786
   -47.6619 -47.6618 -47.6582 -47.6576 -47.6576 -47.6575 -47.6575 -47.6574
   -47.6572 -47.6572 -47.6571 -47.6570 -47.6569 -47.6563 -47.6530 -47.6528
   -24.1510 -24.1510 -24.1509 -24.1509 -24.1506 -24.1505 -24.1505 -24.1504
   -24.1441 -24.1440 -24.1361 -24.1361 -24.1358 -24.1356 -24.1292 -24.1291
   -24.0379 -24.0378 -24.0248 -24.0248 -23.9637 -23.9637 -23.9636 -23.9636
   -23.9388 -23.9388 -23.9387 -23.9386 -23.9313 -23.9312 -23.9311 -23.9311
   -23.9241 -23.9241 -23.9240 -23.9240 -23.8871 -23.8871 -23.8870 -23.8870
   -23.8867 -23.8867 -23.8865 -23.8865 -23.8805 -23.8805 -23.8804 -23.8804
   -23.8801 -23.8801 -23.8799 -23.8799 -23.8586 -23.8586 -23.8505 -23.8505
   -23.8489 -23.8488 -23.8488 -23.8486 -23.8455 -23.8454 -23.8454 -23.8453
   -23.8186 -23.8017 -23.8012 -23.8011 -23.8011 -23.8010 -23.8004 -23.7838
    -9.0922  -8.4178  -8.4177  -8.3327  -8.3327  -8.3322  -8.3322  -8.1912
    -8.1910  -7.9704  -7.9704  -7.9702  -7.9702  -7.9698  -7.9698  -7.9696
    -7.9696  -7.9120  -7.7619  -7.7617  -7.7614  -7.7612  -7.6683  -7.6681
    -7.6678  -7.6677  -7.5658  -7.5656  -7.5653  -7.5651  -7.5465  -7.5464
    -7.4666  -7.4666  -7.4664  -7.4664  -7.4660  -7.4660  -7.4658  -7.4658
    -7.4486  -7.4486  -7.4481  -7.4481  -7.3291  -7.3291  -7.1971  -7.1971
     3.4166   3.6405   3.6405   3.8398   4.2295   4.3200   4.3200   4.3201
     4.3201   4.4421   4.4421   4.4424   4.4425   4.5131   4.5133   4.5135
     4.5137   4.5810   4.5812   4.6324   4.6324   4.6325   4.6325   4.6329
     4.6329   4.6329   4.6329   4.6396   4.6397   4.9201   4.9201   4.9202
     4.9202   4.9204   4.9204   4.9205   4.9205   5.1652   5.1652   5.1654
     5.1654   5.3465   5.3465   5.4206   5.4206   5.4325   5.4326   5.4535
     5.4537   5.4896   5.4897   5.4898   5.4898   5.7227   5.7227   5.7229
     5.7229   5.7232   5.7232   5.7234   5.7234   5.9099   5.9099   5.9103
     5.9104   5.9240   5.9240   5.9241   5.9241   6.0811   6.0811   6.0815
     6.0815   6.1276   6.1277   6.3631   6.3631   6.4797   6.4797   6.4798
     6.4798   6.4803   6.4803   6.4804   6.4804   6.6447   6.6448   6.8771
     6.8773   6.8775   6.8776   7.0079   7.0080   7.1419   7.1421   7.1422
     7.1422   7.1994   7.3824   7.3824   7.3824   7.3824   7.3824   7.3824
     7.3825   7.3825   7.5302   7.5302   7.5304   7.5304   7.6251   7.6254
     7.6256   7.6258   7.6553   7.6554   7.6557   7.6558   7.8909   7.8909
     8.0999   8.0999   8.1917   8.1918   8.2197   8.2197   8.2198   8.2199
     8.2201   8.2201   8.2202   8.2203   8.2504   8.2504   8.2507   8.2508
     8.4938   8.4938   8.4946   8.4946   8.5119   8.7607   8.7607   9.2591
    11.0499  11.0716  11.0717  11.2951  11.4840  11.4840  11.4840  11.4840
    11.4844  11.4844  11.4844  11.4844  11.5778  11.6078  11.6080  11.7029
    11.7030  11.7059  11.7059  11.7060  11.7060  11.7280  11.7281  11.9282
    11.9283  12.1717  12.1718  12.1720  12.1721  12.2025  12.2026  12.2029
    12.2031  12.2332  12.2332  12.2335  12.2337  12.2720  12.2720  12.2721
    12.2721  12.3584  12.3586  12.4583  12.4583  12.4584  12.4584  12.4586
    12.4586  12.4588  12.4588  12.6113  12.6114  12.6117  12.6118  12.7779
    12.7780

          k = 0.0000 0.0000-0.5172 ( 13998 PWs)   bands (ev):

   -47.6853 -47.6849 -47.6783 -47.6777 -47.6777 -47.6776 -47.6776 -47.6775
   -47.6773 -47.6773 -47.6772 -47.6771 -47.6770 -47.6764 -47.6700 -47.6696
   -47.6482 -47.6474 -47.6473 -47.6473 -47.6472 -47.6472 -47.6472 -47.6462
   -24.2565 -24.2565 -24.2565 -24.2565 -24.2444 -24.2443 -24.2435 -24.2434
   -24.0074 -24.0074 -24.0070 -24.0069 -23.9957 -23.9957 -23.9953 -23.9952
   -23.9553 -23.9553 -23.9552 -23.9552 -23.9552 -23.9552 -23.9551 -23.9551
   -23.9329 -23.9329 -23.9329 -23.9329 -23.9326 -23.9326 -23.9324 -23.9324
   -23.9297 -23.9292 -23.9151 -23.9150 -23.9147 -23.9145 -23.9011 -23.9006
   -23.8907 -23.8907 -23.8883 -23.8883 -23.8797 -23.8797 -23.8797 -23.8797
   -23.8796 -23.8796 -23.8796 -23.8796 -23.8773 -23.8773 -23.8772 -23.8772
   -23.8585 -23.8584 -23.8570 -23.8568 -23.8558 -23.8558 -23.8557 -23.8553
   -23.8539 -23.8538 -23.8534 -23.8534 -23.8469 -23.8469 -23.8464 -23.8464
    -8.8187  -8.8182  -8.2025  -8.2023  -8.2020  -8.2018  -8.1442  -8.1442
    -8.1437  -8.1437  -8.1436  -8.1436  -8.1431  -8.1431  -8.0255  -8.0255
    -8.0255  -8.0255  -7.7814  -7.7814  -7.7680  -7.7676  -7.6874  -7.6874
    -7.6523  -7.6522  -7.5350  -7.5349  -7.5267  -7.5267  -7.5263  -7.5263
    -7.5261  -7.5261  -7.5256  -7.5256  -7.4421  -7.4419  -7.4416  -7.4414
    -7.3206  -7.3204  -7.3201  -7.3200  -7.2856  -7.2856  -7.2856  -7.2856
     3.8012   3.8017   3.9456   3.9458   3.9461   3.9463   4.1209   4.1214
     4.1240   4.1240   4.1240   4.1240   4.4401   4.4401   4.5466   4.5471
     4.5976   4.5978   4.6346   4.6347   4.6349   4.6349   4.6351   4.6351
     4.6354   4.6354   4.6713   4.6713   4.7766   4.7766   4.7767   4.7768
     5.0721   5.0721   5.0721   5.0721   5.0721   5.0721   5.0722   5.0722
     5.1302   5.1302   5.1303   5.1303   5.1631   5.1631   5.1633   5.1633
     5.4653   5.4654   5.5811   5.5811   5.6585   5.6586   5.8666   5.8666
     5.8667   5.8667   5.8668   5.8668   5.8669   5.8669   5.9034   5.9034
     5.9034   5.9034   6.4114   6.4115   6.4458   6.4458   6.4530   6.4530
     6.4530   6.4530   6.4536   6.4536   6.4536   6.4536   6.4583   6.4587
     6.7881   6.7882   6.8333   6.8333   6.8333   6.8333   7.0316   7.0316
     7.0316   7.0316   7.0318   7.0318   7.0318   7.0319   7.0631   7.0633
     7.0635   7.0637   7.1322   7.1322   7.1324   7.1325   7.1893   7.1893
     7.1893   7.1893   7.1923   7.1924   7.1928   7.1929   7.2014   7.2016
     7.2017   7.2018   7.5177   7.5181   7.7604   7.7606   7.7608   7.7609
     7.8025   7.8026   7.8895   7.8895   8.1740   8.1740   8.1740   8.1740
     8.2306   8.2307   8.2310   8.2310   8.5365   8.5365   8.5369   8.5369
     8.5372   8.5372   8.5375   8.5375   8.5739   8.5739   9.0674   9.0678
    11.1263  11.1263  11.1263  11.1263  11.4620  11.4625  11.5324  11.5325
    11.5328  11.5329  11.5375  11.5380  11.6258  11.6262  11.8555  11.8556
    11.8791  11.8791  11.8792  11.8792  11.8792  11.8792  11.8793  11.8793
    11.9008  11.9008  11.9011  11.9013  12.0308  12.0309  12.0311  12.0312
    12.2397  12.2398  12.2952  12.2952  12.2953  12.2953  12.2954  12.2954
    12.2955  12.2955  12.3908  12.3910  12.4176  12.4176  12.4349  12.4349
    12.4349  12.4349  12.4581  12.4581  12.7975  12.7975  12.7978  12.7980
    12.7989

          k = 0.0000-0.5000 0.0000 ( 14026 PWs)   bands (ev):

   -47.6939 -47.6934 -47.6878 -47.6874 -47.6874 -47.6869 -47.6814 -47.6809
   -47.6608 -47.6607 -47.6603 -47.6602 -47.6580 -47.6575 -47.6574 -47.6574
   -47.6572 -47.6571 -47.6571 -47.6565 -47.6545 -47.6544 -47.6540 -47.6538
   -24.1498 -24.1497 -24.1493 -24.1492 -24.1444 -24.1439 -24.1438 -24.1438
   -24.1435 -24.1435 -24.1435 -24.1429 -24.1386 -24.1385 -24.1382 -24.1380
   -24.0121 -24.0119 -24.0116 -24.0114 -24.0042 -24.0038 -24.0025 -24.0020
   -23.9204 -23.9203 -23.9202 -23.9202 -23.9199 -23.9199 -23.9198 -23.9197
   -23.9174 -23.9172 -23.9169 -23.9167 -23.9138 -23.9137 -23.9134 -23.9132
   -23.8836 -23.8831 -23.8817 -23.8813 -23.8766 -23.8765 -23.8761 -23.8760
   -23.8598 -23.8597 -23.8593 -23.8592 -23.8568 -23.8567 -23.8564 -23.8563
   -23.8556 -23.8554 -23.8554 -23.8553 -23.8550 -23.8550 -23.8550 -23.8548
   -23.8137 -23.8132 -23.8015 -23.8011 -23.8011 -23.8006 -23.7891 -23.7886
    -8.8733  -8.8726  -8.3781  -8.3775  -8.3774  -8.3769  -8.1294  -8.1291
    -8.1287  -8.1285  -7.9304  -7.9299  -7.8983  -7.8981  -7.8977  -7.8975
    -7.8975  -7.8973  -7.8969  -7.8967  -7.7598  -7.7596  -7.7595  -7.7593
    -7.5363  -7.5360  -7.5356  -7.5355  -7.5354  -7.5353  -7.5353  -7.5351
    -7.5349  -7.5348  -7.5346  -7.5343  -7.4473  -7.4471  -7.4470  -7.4468
    -7.3974  -7.3969  -7.3871  -7.3866  -7.3864  -7.3859  -7.2816  -7.2808
     3.7984   3.7991   3.9370   3.9373   3.9376   3.9380   4.0886   4.0892
     4.4718   4.4720   4.4722   4.4723   4.4724   4.4725   4.4727   4.4729
     4.6195   4.6195   4.6196   4.6196   4.6548   4.6555   4.7217   4.7217
     4.7221   4.7222   4.7827   4.7828   4.7829   4.7832   4.7832   4.7836
     4.7836   4.7838   4.7981   4.7982   4.7983   4.7983   5.0841   5.0842
     5.0843   5.0843   5.4136   5.4141   5.4142   5.4147   5.4469   5.4475
     5.4629   5.4634   5.5993   5.5993   5.5995   5.5995   5.6922   5.6923
     5.6930   5.6931   5.7468   5.7469   5.7470   5.7471   5.7473   5.7474
     5.7475   5.7476   5.9071   5.9076   5.9076   5.9081   6.1850   6.1851
     6.1852   6.1853   6.2748   6.2754   6.4851   6.4857   6.8246   6.8247
     6.8247   6.8249   6.8250   6.8253   6.8254   6.8254   6.9512   6.9512
     6.9516   6.9516   6.9788   6.9788   6.9793   6.9793   7.1463   7.1463
     7.1468   7.1469   7.2351   7.2356   7.3848   7.3852   7.3853   7.3854
     7.3854   7.3855   7.3856   7.3859   7.5622   7.5623   7.5625   7.5626
     7.7083   7.7088   7.7089   7.7094   7.7461   7.7462   7.7468   7.7469
     7.7657   7.7663   8.1143   8.1149   8.1150   8.1156   8.1325   8.1331
     8.2765   8.2767   8.2770   8.2770   8.2772   8.2772   8.2776   8.2777
     8.3974   8.3981   8.4087   8.4089   8.4093   8.4094   9.0148   9.0155
    11.3422  11.3423  11.3424  11.3425  11.3435  11.3440  11.4373  11.4377
    11.4377  11.4382  11.6345  11.6350  11.6833  11.6833  11.6837  11.6837
    11.6838  11.6838  11.6841  11.6842  11.9469  11.9473  11.9940  11.9944
    11.9944  11.9949  11.9992  11.9997  12.0257  12.0261  12.1289  12.1290
    12.1290  12.1290  12.1883  12.1884  12.1886  12.1887  12.3050  12.3055
    12.3055  12.3056  12.3057  12.3058  12.3059  12.3064  12.4197  12.4198
    12.4202  12.4203  12.7681  12.7682  12.7685  12.7685  12.7686  12.7689
    12.7690

          k = 0.0000-0.5000-0.5172 ( 13952 PWs)   bands (ev):

   -47.6833 -47.6828 -47.6828 -47.6824 -47.6781 -47.6776 -47.6775 -47.6775
   -47.6773 -47.6772 -47.6772 -47.6766 -47.6725 -47.6720 -47.6720 -47.6715
   -47.6482 -47.6474 -47.6473 -47.6473 -47.6472 -47.6472 -47.6472 -47.6462
   -24.2513 -24.2506 -24.2505 -24.2503 -24.2502 -24.2502 -24.2501 -24.2493
   -23.9885 -23.9884 -23.9880 -23.9880 -23.9880 -23.9880 -23.9877 -23.9875
   -23.9854 -23.9851 -23.9851 -23.9847 -23.9769 -23.9764 -23.9764 -23.9759
   -23.9210 -23.9208 -23.9207 -23.9205 -23.9188 -23.9184 -23.9184 -23.9184
   -23.9183 -23.9182 -23.9182 -23.9182 -23.9180 -23.9180 -23.9179 -23.9176
   -23.8843 -23.8838 -23.8837 -23.8834 -23.8829 -23.8826 -23.8826 -23.8819
   -23.8706 -23.8702 -23.8702 -23.8698 -23.8623 -23.8621 -23.8619 -23.8619
   -23.8618 -23.8618 -23.8616 -23.8615 -23.8614 -23.8613 -23.8613 -23.8610
   -23.8578 -23.8572 -23.8571 -23.8568 -23.8566 -23.8564 -23.8563 -23.8556
    -8.6265  -8.6259  -8.6257  -8.6251  -8.1753  -8.1749  -8.1749  -8.1747
    -8.1743  -8.1741  -8.1741  -8.1737  -7.9330  -7.9327  -7.9323  -7.9320
    -7.9244  -7.9244  -7.9237  -7.9236  -7.7581  -7.7577  -7.7576  -7.7572
    -7.5152  -7.5148  -7.5147  -7.5143  -7.4832  -7.4829  -7.4828  -7.4826
    -7.4823  -7.4821  -7.4820  -7.4816  -7.4018  -7.4018  -7.4011  -7.4010
    -7.3862  -7.3858  -7.3854  -7.3850  -7.3818  -7.3815  -7.3811  -7.3807
     4.1213   4.1218   4.1220   4.1225   4.2064   4.2066   4.2071   4.2072
     4.2401   4.2402   4.2404   4.2406   4.2409   4.2411   4.2413   4.2414
     4.3892   4.3897   4.3899   4.3904   4.4203   4.4204   4.4210   4.4212
     4.7250   4.7253   4.7253   4.7256   4.8765   4.8765   4.8767   4.8768
     4.8771   4.8772   4.8773   4.8774   4.9738   4.9740   4.9743   4.9744
     5.0618   5.0622   5.0622   5.0625   5.1121   5.1122   5.1128   5.1129
     5.5009   5.5009   5.5011   5.5011   5.7122   5.7122   5.7122   5.7123
     5.9173   5.9174   5.9174   5.9176   6.2949   6.2952   6.2955   6.2958
     6.3305   6.3307   6.3309   6.3309   6.3310   6.3310   6.3312   6.3313
     6.5673   6.5676   6.5678   6.5680   6.5744   6.5745   6.5750   6.5750
     6.5830   6.5831   6.5831   6.5832   6.9069   6.9069   6.9070   6.9071
     6.9073   6.9074   6.9075   6.9076   7.0028   7.0029   7.0034   7.0036
     7.0582   7.0582   7.0586   7.0586   7.2655   7.2657   7.2658   7.2659
     7.2661   7.2661   7.2663   7.2664   7.3901   7.3901   7.3903   7.3904
     7.6163   7.6165   7.6169   7.6171   7.6641   7.6644   7.6647   7.6648
     8.0167   8.0168   8.0169   8.0170   8.1166   8.1170   8.1172   8.1173
     8.1175   8.1176   8.1178   8.1182   8.1789   8.1792   8.1795   8.1798
     8.3499   8.3504   8.3504   8.3509   8.8688   8.8692   8.8695   8.8700
    11.3979  11.3981  11.3984  11.3985  11.5706  11.5708  11.5708  11.5710
    11.6920  11.6922  11.6924  11.6926  11.7715  11.7718  11.7719  11.7719
    11.7720  11.7721  11.7721  11.7724  11.8818  11.8822  11.8823  11.8827
    11.9068  11.9072  11.9072  11.9077  12.0501  12.0504  12.0505  12.0508
    12.0555  12.0556  12.0556  12.0556  12.0558  12.0559  12.0559  12.0561
    12.3538  12.3539  12.3540  12.3541  12.4265  12.4270  12.4270  12.4275
    12.4448  12.4452  12.4452  12.4458  12.7879  12.7883  12.7884  12.7885
    12.7886

          k =-0.5000-0.5000 0.0000 ( 14028 PWs)   bands (ev):

   -47.6923 -47.6918 -47.6918 -47.6913 -47.6835 -47.6830 -47.6830 -47.6825
   -47.6602 -47.6599 -47.6596 -47.6596 -47.6595 -47.6595 -47.6591 -47.6591
   -47.6556 -47.6555 -47.6552 -47.6552 -47.6550 -47.6550 -47.6547 -47.6544
   -24.1506 -24.1505 -24.1504 -24.1504 -24.1501 -24.1499 -24.1499 -24.1499
   -24.1372 -24.1372 -24.1371 -24.1371 -24.1368 -24.1366 -24.1366 -24.1365
   -24.0313 -24.0313 -24.0313 -24.0313 -23.9644 -23.9644 -23.9643 -23.9643
   -23.9351 -23.9351 -23.9350 -23.9350 -23.9349 -23.9349 -23.9349 -23.9348
   -23.9235 -23.9235 -23.9234 -23.9234 -23.8863 -23.8863 -23.8862 -23.8861
   -23.8861 -23.8861 -23.8860 -23.8860 -23.8809 -23.8809 -23.8808 -23.8808
   -23.8808 -23.8808 -23.8806 -23.8806 -23.8546 -23.8546 -23.8546 -23.8546
   -23.8472 -23.8472 -23.8471 -23.8471 -23.8471 -23.8471 -23.8470 -23.8470
   -23.8103 -23.8098 -23.8098 -23.8093 -23.7929 -23.7924 -23.7924 -23.7919
    -8.7322  -8.7315  -8.7315  -8.7308  -8.0638  -8.0636  -8.0632  -8.0631
    -8.0630  -8.0629  -8.0625  -8.0623  -8.0253  -8.0250  -8.0250  -8.0246
    -7.7431  -7.7429  -7.7429  -7.7429  -7.7428  -7.7427  -7.7427  -7.7425
    -7.6178  -7.6178  -7.6176  -7.6176  -7.6173  -7.6173  -7.6171  -7.6171
    -7.4841  -7.4838  -7.4837  -7.4834  -7.4453  -7.4451  -7.4450  -7.4448
    -7.4447  -7.4445  -7.4444  -7.4442  -7.2644  -7.2644  -7.2644  -7.2644
     3.6279   3.6280   3.6280   3.6282   4.3943   4.3943   4.3943   4.3943
     4.5667   4.5667   4.5668   4.5669   4.5671   4.5672   4.5673   4.5673
     4.6307   4.6308   4.6308   4.6309   4.6311   4.6313   4.6314   4.6314
     4.6358   4.6359   4.6359   4.6361   4.6362   4.6363   4.6363   4.6364
     4.9755   4.9762   4.9762   4.9770   5.0743   5.0744   5.0745   5.0746
     5.0748   5.0748   5.0749   5.0750   5.3599   5.3599   5.3599   5.3599
     5.3603   5.3603   5.3604   5.3604   5.3834   5.3834   5.3835   5.3835
     5.4901   5.4902   5.4903   5.4904   6.0604   6.0604   6.0605   6.0605
     6.1465   6.1465   6.1466   6.1466   6.1469   6.1469   6.1470   6.1470
     6.4402   6.4403   6.4406   6.4408   6.4408   6.4409   6.4412   6.4414
     6.7645   6.7645   6.7646   6.7646   6.7719   6.7719   6.7719   6.7720
     6.7722   6.7722   6.7723   6.7723   7.0960   7.0961   7.0962   7.0962
     7.0964   7.0964   7.0965   7.0965   7.3412   7.3417   7.3417   7.3421
     7.4728   7.4729   7.4729   7.4730   7.6379   7.6379   7.6380   7.6380
     7.6383   7.6383   7.6384   7.6384   7.9204   7.9204   7.9204   7.9205
     7.9208   7.9208   7.9209   7.9209   8.0576   8.0581   8.0581   8.0587
     8.0945   8.0947   8.0947   8.0949   8.5031   8.5032   8.5036   8.5037
     8.5037   8.5038   8.5043   8.5044   8.8097   8.8103   8.8103   8.8109
    11.1097  11.1099  11.1100  11.1102  11.3277  11.3278  11.3279  11.3279
    11.3282  11.3282  11.3283  11.3284  11.7150  11.7150  11.7150  11.7150
    11.7398  11.7401  11.7402  11.7405  12.0960  12.0960  12.0960  12.0960
    12.0961  12.0961  12.0962  12.0962  12.2696  12.2697  12.2697  12.2698
    12.2701  12.2701  12.2702  12.2702  12.2775  12.2775  12.2776  12.2776
    12.3550  12.3554  12.3554  12.3559  12.4110  12.4110  12.4111  12.4111
    12.4113  12.4114  12.4114  12.4115  12.5816  12.5818  12.5820  12.5821
    12.5822

          k =-0.5000-0.5000-0.5172 ( 13984 PWs)   bands (ev):

   -47.6819 -47.6815 -47.6814 -47.6814 -47.6810 -47.6810 -47.6810 -47.6805
   -47.6743 -47.6738 -47.6738 -47.6738 -47.6733 -47.6733 -47.6733 -47.6728
   -47.6482 -47.6474 -47.6473 -47.6473 -47.6472 -47.6472 -47.6472 -47.6462
   -24.2553 -24.2552 -24.2552 -24.2552 -24.2453 -24.2453 -24.2452 -24.2452
   -24.0016 -24.0016 -24.0015 -24.0015 -24.0011 -24.0011 -24.0011 -24.0010
   -23.9507 -23.9507 -23.9506 -23.9506 -23.9505 -23.9505 -23.9505 -23.9505
   -23.9432 -23.9431 -23.9430 -23.9430 -23.9429 -23.9429 -23.9427 -23.9427
   -23.9094 -23.9094 -23.9093 -23.9093 -23.9091 -23.9091 -23.9090 -23.9090
   -23.8895 -23.8895 -23.8895 -23.8895 -23.8799 -23.8799 -23.8799 -23.8799
   -23.8798 -23.8797 -23.8797 -23.8797 -23.8769 -23.8769 -23.8768 -23.8768
   -23.8580 -23.8576 -23.8576 -23.8576 -23.8561 -23.8561 -23.8560 -23.8556
   -23.8504 -23.8504 -23.8504 -23.8504 -23.8499 -23.8499 -23.8499 -23.8499
    -8.4970  -8.4964  -8.4963  -8.4962  -8.4957  -8.4957  -8.4955  -8.4950
    -8.0286  -8.0286  -8.0286  -8.0286  -7.8430  -7.8429  -7.8428  -7.8426
    -7.8426  -7.8424  -7.8423  -7.8421  -7.7350  -7.7350  -7.7350  -7.7350
    -7.5935  -7.5935  -7.5935  -7.5935  -7.5788  -7.5784  -7.5783  -7.5782
    -7.5779  -7.5778  -7.5778  -7.5774  -7.3824  -7.3824  -7.3822  -7.3822
    -7.3819  -7.3819  -7.3817  -7.3817  -7.2823  -7.2823  -7.2823  -7.2822
     3.9391   3.9391   3.9393   3.9394   3.9395   3.9396   3.9398   3.9398
     4.1426   4.1426   4.1427   4.1427   4.7174   4.7175   4.7177   4.7177
     4.7178   4.7178   4.7180   4.7181   4.7248   4.7248   4.7248   4.7248
     4.7252   4.7252   4.7253   4.7254   4.7735   4.7735   4.7735   4.7735
     4.9107   4.9107   4.9107   4.9107   4.9876   4.9876   4.9876   4.9876
     5.0806   5.0806   5.0807   5.0807   5.0807   5.0807   5.0807   5.0807
     5.1364   5.1364   5.1365   5.1365   5.7017   5.7019   5.7022   5.7022
     5.7023   5.7024   5.7026   5.7028   6.1539   6.1540   6.1540   6.1541
     6.1541   6.1541   6.1542   6.1542   6.4200   6.4200   6.4200   6.4200
     6.5651   6.5651   6.5651   6.5651   6.6202   6.6202   6.6202   6.6202
     6.6647   6.6647   6.6648   6.6648   6.6648   6.6648   6.6649   6.6649
     6.9910   6.9910   6.9912   6.9912   6.9913   6.9913   6.9914   6.9914
     7.1467   7.1467   7.1468   7.1468   7.1471   7.1471   7.1471   7.1471
     7.3157   7.3157   7.3157   7.3157   7.7042   7.7042   7.7042   7.7043
     7.8263   7.8263   7.8263   7.8263   7.9868   7.9869   7.9870   7.9870
     7.9872   7.9873   7.9873   7.9873   8.0002   8.0002   8.0002   8.0002
     8.0374   8.0375   8.0375   8.0377   8.0377   8.0378   8.0379   8.0380
     8.5647   8.5651   8.5654   8.5654   8.5658   8.5658   8.5661   8.5665
    11.3414  11.3414  11.3414  11.3414  11.5267  11.5269  11.5270  11.5271
    11.5271  11.5273  11.5274  11.5275  11.6379  11.6379  11.6381  11.6381
    11.6381  11.6382  11.6383  11.6384  11.9801  11.9803  11.9803  11.9803
    11.9805  11.9806  11.9806  11.9808  12.0426  12.0426  12.0426  12.0426
    12.3797  12.3797  12.3797  12.3797  12.4066  12.4066  12.4066  12.4066
    12.4067  12.4067  12.4068  12.4068  12.4351  12.4351  12.4352  12.4352
    12.4481  12.4483  12.4484  12.4484  12.4486  12.4486  12.4487  12.4489
    12.4987

     the Fermi energy is    10.0102 ev

!    total energy              =   -4343.29889039 Ry
     Harris-Foulkes estimate   =   -4343.29889004 Ry
     estimated scf accuracy    <          9.7E-09 Ry

     The total energy is the sum of the following terms:

     one-electron contribution =   -1506.86719538 Ry
     hartree contribution      =    1027.86515152 Ry
     xc contribution           =    -686.12392812 Ry
     ewald contribution        =   -3178.17291840 Ry
     smearing contrib. (-TS)   =      -0.00000000 Ry

     total magnetization       =    -0.00 Bohr mag/cell
     absolute magnetization    =     0.00 Bohr mag/cell

     convergence has been achieved in  18 iterations
 forces --- starting time for forces:
     forces       :      0.00s CPU      0.00s WALL (       1 calls)

     Forces acting on atoms (Ry/au):

 forces --- nonlocal contribution:
     forces       :      2.55s CPU      2.55s WALL (       2 calls)
 forces --- local contribution:
     forces       :      2.56s CPU      2.56s WALL (       3 calls)
 forces --- NLCC contribution:
     forces       :      2.56s CPU      2.56s WALL (       4 calls)
 forces --- Hubbard contribution:
     forces       :      2.56s CPU      2.56s WALL (       5 calls)
 forces --- ionic contribution:
     forces       :      2.57s CPU      2.58s WALL (       6 calls)
 forces --- SCF contribution:
     forces       :      2.64s CPU      2.64s WALL (       7 calls)
     atom   1 type  2   force =     0.00000000    0.00000000    0.00000000
     atom   2 type  2   force =     0.00000000    0.00000000   -0.00000250
     atom   3 type  2   force =     0.00000000    0.00000000    0.00000250
     atom   4 type  2   force =     0.00000000    0.00000000    0.00000000
     atom   5 type  2   force =     0.00000000    0.00000000   -0.00000248
     atom   6 type  2   force =     0.00000000    0.00000000    0.00000248
     atom   7 type  2   force =     0.00000000    0.00000000    0.00000000
     atom   8 type  2   force =     0.00000000    0.00000000   -0.00000248
     atom   9 type  2   force =     0.00000000    0.00000000    0.00000248
     atom  10 type  2   force =     0.00000000    0.00000000    0.00000000
     atom  11 type  2   force =     0.00000000    0.00000000   -0.00000252
     atom  12 type  2   force =     0.00000000    0.00000000    0.00000252
     atom  13 type  2   force =    -0.00000148   -0.00000148   -0.00000639
     atom  14 type  2   force =    -0.00000156   -0.00000156    0.00000000
     atom  15 type  2   force =    -0.00000148   -0.00000148    0.00000639
     atom  16 type  2   force =     0.00000049   -0.00000049   -0.00000646
     atom  17 type  2   force =     0.00000049   -0.00000049    0.00000000
     atom  18 type  2   force =     0.00000049   -0.00000049    0.00000646
     atom  19 type  2   force =    -0.00000049    0.00000049   -0.00000646
     atom  20 type  2   force =    -0.00000049    0.00000049    0.00000000
     atom  21 type  2   force =    -0.00000049    0.00000049    0.00000646
     atom  22 type  2   force =     0.00000148    0.00000148   -0.00000639
     atom  23 type  2   force =     0.00000156    0.00000156    0.00000000
     atom  24 type  2   force =     0.00000148    0.00000148    0.00000639
     atom  25 type  1   force =     0.00640721    0.00640721    0.00000000
     atom  26 type  1   force =     0.00640760    0.00640760   -0.00000061
     atom  27 type  1   force =     0.00640760    0.00640760    0.00000061
     atom  28 type  1   force =     0.00641155    0.00641453    0.00000000
     atom  29 type  1   force =     0.00641214    0.00641495   -0.00000058
     atom  30 type  1   force =     0.00641214    0.00641495    0.00000058
     atom  31 type  1   force =     0.00641453    0.00641155    0.00000000
     atom  32 type  1   force =     0.00641495    0.00641214   -0.00000058
     atom  33 type  1   force =     0.00641495    0.00641214    0.00000058
     atom  34 type  1   force =     0.00641924    0.00641924    0.00000000
     atom  35 type  1   force =     0.00641981    0.00641981   -0.00000054
     atom  36 type  1   force =     0.00641981    0.00641981    0.00000054
     atom  37 type  1   force =    -0.00641924   -0.00641924    0.00000000
     atom  38 type  1   force =    -0.00641981   -0.00641981   -0.00000054
     atom  39 type  1   force =    -0.00641981   -0.00641981    0.00000054
     atom  40 type  1   force =    -0.00641453   -0.00641155    0.00000000
     atom  41 type  1   force =    -0.00641495   -0.00641214   -0.00000058
     atom  42 type  1   force =    -0.00641495   -0.00641214    0.00000058
     atom  43 type  1   force =    -0.00641155   -0.00641453    0.00000000
     atom  44 type  1   force =    -0.00641214   -0.00641495   -0.00000058
     atom  45 type  1   force =    -0.00641214   -0.00641495    0.00000058
     atom  46 type  1   force =    -0.00640721   -0.00640721    0.00000000
     atom  47 type  1   force =    -0.00640760   -0.00640760   -0.00000061
     atom  48 type  1   force =    -0.00640760   -0.00640760    0.00000061
     atom  49 type  1   force =    -0.00643093    0.00642574   -0.00000271
     atom  50 type  1   force =    -0.00643052    0.00642535    0.00000000
     atom  51 type  1   force =    -0.00643093    0.00642574    0.00000271
     atom  52 type  1   force =    -0.00643777    0.00643777   -0.00000262
     atom  53 type  1   force =    -0.00643743    0.00643743    0.00000000
     atom  54 type  1   force =    -0.00643777    0.00643777    0.00000262
     atom  55 type  1   force =    -0.00641943    0.00641943   -0.00000263
     atom  56 type  1   force =    -0.00641903    0.00641903    0.00000000
     atom  57 type  1   force =    -0.00641943    0.00641943    0.00000263
     atom  58 type  1   force =    -0.00642574    0.00643093   -0.00000271
     atom  59 type  1   force =    -0.00642535    0.00643052    0.00000000
     atom  60 type  1   force =    -0.00642574    0.00643093    0.00000271
     atom  61 type  1   force =     0.00642574   -0.00643093   -0.00000271
     atom  62 type  1   force =     0.00642535   -0.00643052    0.00000000
     atom  63 type  1   force =     0.00642574   -0.00643093    0.00000271
     atom  64 type  1   force =     0.00641943   -0.00641943   -0.00000263
     atom  65 type  1   force =     0.00641903   -0.00641903    0.00000000
     atom  66 type  1   force =     0.00641943   -0.00641943    0.00000263
     atom  67 type  1   force =     0.00643777   -0.00643777   -0.00000262
     atom  68 type  1   force =     0.00643743   -0.00643743    0.00000000
     atom  69 type  1   force =     0.00643777   -0.00643777    0.00000262
     atom  70 type  1   force =     0.00643093   -0.00642574   -0.00000271
     atom  71 type  1   force =     0.00643052   -0.00642535    0.00000000
     atom  72 type  1   force =     0.00643093   -0.00642574    0.00000271

     Total force =     0.062912     Total SCF correction =     0.000292


     entering subroutine stress ...

          total   stress  (Ry/bohr**3)                   (kbar)     P=   53.53
   0.00038417  -0.00000002   0.00000000         56.51     -0.00      0.00
  -0.00000002   0.00038417   0.00000000         -0.00     56.51      0.00
   0.00000000   0.00000000   0.00032330          0.00      0.00     47.56


     Writing output data file tio2.save
 
     init_run     :     13.75s CPU     14.65s WALL (       1 calls)
     electrons    :    729.68s CPU    737.07s WALL (       1 calls)
     forces       :      2.64s CPU      2.64s WALL (       8 calls)
     stress       :     10.60s CPU     10.60s WALL (       1 calls)

     Called by init_run:
     wfcinit      :     11.72s CPU     11.99s WALL (       1 calls)
     potinit      :      0.16s CPU      0.17s WALL (       1 calls)

     Called by electrons:
     c_bands      :    630.14s CPU    636.23s WALL (      18 calls)
     sum_band     :     84.87s CPU     85.19s WALL (      18 calls)
     v_of_rho     :      0.90s CPU      0.91s WALL (      19 calls)
     newd         :     12.23s CPU     12.23s WALL (      19 calls)
     mix_rho      :      0.63s CPU      0.63s WALL (      18 calls)

     Called by c_bands:
     init_us_2    :      0.46s CPU      0.57s WALL (     468 calls)
     cegterg      :    627.08s CPU    632.64s WALL (     216 calls)

     Called by *egterg:
     h_psi        :    347.94s CPU    349.13s WALL (     858 calls)
     s_psi        :     12.80s CPU     12.81s WALL (     858 calls)
     g_psi        :      0.19s CPU      0.19s WALL (     630 calls)
     cdiaghg      :    233.03s CPU    237.40s WALL (     846 calls)

     Called by h_psi:
     add_vuspsi   :     12.46s CPU     12.51s WALL (     858 calls)

     General routines
     calbec       :     24.95s CPU     25.10s WALL (    1098 calls)
     fft          :      1.75s CPU      1.76s WALL (     592 calls)
     ffts         :      0.45s CPU      0.45s WALL (     463 calls)
     fftw         :    378.94s CPU    380.20s WALL (  446242 calls)
     interpolate  :      0.25s CPU      0.25s WALL (      74 calls)
     davcio       :      0.12s CPU      0.58s WALL (     696 calls)
 
     Parallel routines
     fft_scatter  :    343.96s CPU    345.09s WALL (  447297 calls)
 
     PWSCF        : 12m46.42s CPU    12m56.70s WALL

 
   This run was terminated on:  10:55:57  29Aug2018            

=------------------------------------------------------------------------------=
   JOB DONE.
=------------------------------------------------------------------------------=
