
     Program PWSCF v.4.3        starts on  6Sep2018 at 14:14: 8 

     This program is part of the open-source Quantum ESPRESSO suite
     for quantum simulation of materials; please cite
         "P. Giannozzi et al., J. Phys.:Condens. Matter 21 395502 (2009);
          URL http://www.quantum-espresso.org", 
     in publications or presentations arising from this work. More details at
     http://www.quantum-espresso.org/wiki/index.php/Citing_Quantum-ESPRESSO

     Parallel version (MPI), running on    64 processors
     R & G space division:  proc/pool =   64

     Current dimensions of program PWSCF are:
     Max number of different atomic species (ntypx) = **
     Max number of k-points (npk) =  40000
     Max angular momentum in pseudopotentials (lmaxx) =  3
     Waiting for input...

     Atomic positions and unit cell read from directory:
     ./v2o5.save/
     Nothing found: using input atomic positions and unit cell


     Subspace diagonalization in iterative solution of the eigenvalue problem:
     parallel, distributed-memory algorithm (size of sub-group:  5*  5 procs)

     Found symmetry operation: I + (  0.0000  0.0000  0.5000)
     This is a supercell, fractional translation are disabled
 
   Stick Mesh
   ----------
   nst = 10457,  nstw =  1035, nsts =  4177
               n.st   n.stw   n.sts    n.g    n.gw   n.gs
   min         163      16      65    9923     312    2501
   max         164      17      66    9926     317    2526
      10457    1035    4177  635163   20075  160693
 


     bravais-lattice index     =           14
     lattice parameter (a_0)   =      21.7375  a.u.
     unit-cell volume          =    7238.1051 (a.u.)^3
     number of atoms/cell      =           84
     number of atomic types    =            2
     number of electrons       =       672.00
     number of Kohn-Sham states=          806
     kinetic-energy cutoff     =      30.0000  Ry
     charge density cutoff     =     300.0000  Ry
     Exchange-correlation      = SLA  PW   PBE  PBE (1434)
     EXX-fraction              =        0.00

     celldm(1)=  21.737520  celldm(2)=   0.927671  celldm(3)=   0.759628
     celldm(4)=   0.000000  celldm(5)=   0.000000  celldm(6)=   0.000000

     crystal axes: (cart. coord. in units of a_0)
               a(1) = (   1.000000   0.000000   0.000000 )  
               a(2) = (   0.000000   0.927671   0.000000 )  
               a(3) = (   0.000000   0.000000   0.759628 )  

     reciprocal axes: (cart. coord. in units 2 pi/a_0)
               b(1) = (  1.000000  0.000000  0.000000 )  
               b(2) = (  0.000000  1.077968  0.000000 )  
               b(3) = (  0.000000  0.000000  1.316434 )  


     PseudoPot. # 1 for O  read from file O.pbe-van_bm.UPF
     MD5 check sum: ca2828d9fb1f294809e918903b7648d1
     Pseudo is Ultrasoft, Zval =  6.0
     Generated by new atomic code, or converted to UPF format
     Using radial grid of  737 points,  4 beta functions with: 
                l(1) =   0
                l(2) =   0
                l(3) =   1
                l(4) =   1
     Q(r) pseudized with  8 coefficients,  rinner =    0.800   0.800   0.800


     PseudoPot. # 2 for V  read from file V.pbe-van-yufengl.UPF
     MD5 check sum: 105a573f738f0b837c178d5a4207921b
     Pseudo is Ultrasoft + core correction, Zval = 13.0
     Generated by new atomic code, or converted to UPF format
     Using radial grid of  853 points,  6 beta functions with: 
                l(1) =   0
                l(2) =   0
                l(3) =   1
                l(4) =   1
                l(5) =   2
                l(6) =   2
     Q(r) pseudized with  6 coefficients,  rinner =    1.000   1.000   1.000
                                                       1.000   1.000

     atomic species   valence    mass     pseudopotential
        O              6.00    15.99900     O ( 1.00)
        V             13.00    50.94000     V ( 1.00)

     Starting magnetic structure 
     atomic species   magnetization
        O            0.000
        V            0.010

     LDA+U calculation, Hubbard_lmax = 2
     atomic species  L   Hubbard U  Hubbard alpha
        V            2    0.227846    0.000000

      4 Sym.Ops. (no inversion)


   Cartesian axes

     site n.     atom                  positions (a_0 units)
         1           V   tau(  1) = (   0.1483269   0.0000000   0.3388149  )
         2           V   tau(  2) = (   0.1483269   0.0000000   0.7186289  )
         3           V   tau(  3) = (   0.1483269   0.3092237   0.3388149  )
         4           V   tau(  4) = (   0.1483269   0.3092237   0.7186289  )
         5           V   tau(  5) = (   0.1483269   0.6184474   0.3388149  )
         6           V   tau(  6) = (   0.1483269   0.6184474   0.7186289  )
         7           V   tau(  7) = (   0.3516731   0.1546118   0.0409986  )
         8           V   tau(  8) = (   0.3516731   0.1546118   0.4208125  )
         9           V   tau(  9) = (   0.3516731   0.4638355   0.0409986  )
        10           V   tau( 10) = (   0.3516731   0.4638355   0.4208125  )
        11           V   tau( 11) = (   0.3516731   0.7730592   0.0409986  )
        12           V   tau( 12) = (   0.3516731   0.7730592   0.4208125  )
        13           V   tau( 13) = (   0.6483270   0.1546118   0.0409980  )
        14           V   tau( 14) = (   0.6483270   0.1546118   0.4208119  )
        15           V   tau( 15) = (   0.6483270   0.4638355   0.0409980  )
        16           V   tau( 16) = (   0.6483270   0.4638355   0.4208119  )
        17           V   tau( 17) = (   0.6483270   0.7730592   0.0409980  )
        18           V   tau( 18) = (   0.6483270   0.7730592   0.4208119  )
        19           V   tau( 19) = (   0.8516731   0.0000000   0.3388154  )
        20           V   tau( 20) = (   0.8516731   0.0000000   0.7186293  )
        21           V   tau( 21) = (   0.8516731   0.3092237   0.3388154  )
        22           V   tau( 22) = (   0.8516731   0.3092237   0.7186293  )
        23           V   tau( 23) = (   0.8516731   0.6184474   0.3388154  )
        24           V   tau( 24) = (   0.8516731   0.6184474   0.7186293  )
        25           O   tau( 25) = (   0.1813361   0.1546118   0.3796345  )
        26           O   tau( 26) = (   0.1813361   0.1546118   0.7594484  )
        27           O   tau( 27) = (   0.1813361   0.4638355   0.3796345  )
        28           O   tau( 28) = (   0.1813361   0.4638355   0.7594484  )
        29           O   tau( 29) = (   0.1813361   0.7730592   0.3796345  )
        30           O   tau( 30) = (   0.1813361   0.7730592   0.7594484  )
        31           O   tau( 31) = (   0.3186639   0.0000000   0.0001795  )
        32           O   tau( 32) = (   0.3186639   0.0000000   0.3799935  )
        33           O   tau( 33) = (   0.3186639   0.3092237   0.0001795  )
        34           O   tau( 34) = (   0.3186639   0.3092237   0.3799935  )
        35           O   tau( 35) = (   0.3186639   0.6184474   0.0001795  )
        36           O   tau( 36) = (   0.3186639   0.6184474   0.3799935  )
        37           O   tau( 37) = (   0.6813362   0.0000000   0.0001795  )
        38           O   tau( 38) = (   0.6813362   0.0000000   0.3799935  )
        39           O   tau( 39) = (   0.6813362   0.3092237   0.0001795  )
        40           O   tau( 40) = (   0.6813362   0.3092237   0.3799935  )
        41           O   tau( 41) = (   0.6813362   0.6184474   0.0001795  )
        42           O   tau( 42) = (   0.6813362   0.6184474   0.3799935  )
        43           O   tau( 43) = (   0.8186639   0.1546118   0.3796345  )
        44           O   tau( 44) = (   0.8186639   0.1546118   0.7594485  )
        45           O   tau( 45) = (   0.8186639   0.4638355   0.3796345  )
        46           O   tau( 46) = (   0.8186639   0.4638355   0.7594485  )
        47           O   tau( 47) = (   0.8186639   0.7730592   0.3796345  )
        48           O   tau( 48) = (   0.8186639   0.7730592   0.7594485  )
        49           O   tau( 49) = (   0.8552736   0.0000000   0.2004983  )
        50           O   tau( 50) = (   0.8552736   0.0000000   0.5803123  )
        51           O   tau( 51) = (   0.8552736   0.3092237   0.2004983  )
        52           O   tau( 52) = (   0.8552736   0.3092237   0.5803123  )
        53           O   tau( 53) = (   0.8552736   0.6184474   0.2004983  )
        54           O   tau( 54) = (   0.8552736   0.6184474   0.5803123  )
        55           O   tau( 55) = (   0.6447264   0.1546118   0.1793162  )
        56           O   tau( 56) = (   0.6447264   0.1546118   0.5591301  )
        57           O   tau( 57) = (   0.6447264   0.4638355   0.1793162  )
        58           O   tau( 58) = (   0.6447264   0.4638355   0.5591301  )
        59           O   tau( 59) = (   0.6447264   0.7730592   0.1793162  )
        60           O   tau( 60) = (   0.6447264   0.7730592   0.5591301  )
        61           O   tau( 61) = (   0.3552736   0.1546118   0.1793157  )
        62           O   tau( 62) = (   0.3552736   0.1546118   0.5591297  )
        63           O   tau( 63) = (   0.3552736   0.4638355   0.1793157  )
        64           O   tau( 64) = (   0.3552736   0.4638355   0.5591297  )
        65           O   tau( 65) = (   0.3552736   0.7730592   0.1793157  )
        66           O   tau( 66) = (   0.3552736   0.7730592   0.5591297  )
        67           O   tau( 67) = (   0.5000000   0.1546118   0.3788864  )
        68           O   tau( 68) = (   0.5000000   0.1546118   0.7587004  )
        69           O   tau( 69) = (   0.5000000   0.4638355   0.3788864  )
        70           O   tau( 70) = (   0.5000000   0.4638355   0.7587004  )
        71           O   tau( 71) = (   0.5000000   0.7730592   0.3788864  )
        72           O   tau( 72) = (   0.5000000   0.7730592   0.7587004  )
        73           O   tau( 73) = (  -0.0000000   0.0000000   0.0009276  )
        74           O   tau( 74) = (  -0.0000000   0.0000000   0.3807415  )
        75           O   tau( 75) = (  -0.0000000   0.3092237   0.0009276  )
        76           O   tau( 76) = (  -0.0000000   0.3092237   0.3807415  )
        77           O   tau( 77) = (  -0.0000000   0.6184474   0.0009276  )
        78           O   tau( 78) = (  -0.0000000   0.6184474   0.3807415  )
        79           O   tau( 79) = (   0.1447264   0.0000000   0.2004987  )
        80           O   tau( 80) = (   0.1447264   0.0000000   0.5803126  )
        81           O   tau( 81) = (   0.1447264   0.3092237   0.2004987  )
        82           O   tau( 82) = (   0.1447264   0.3092237   0.5803126  )
        83           O   tau( 83) = (   0.1447264   0.6184474   0.2004987  )
        84           O   tau( 84) = (   0.1447264   0.6184474   0.5803126  )

     number of k points=     2  Fermi-Dirac smearing, width (Ry)=  0.0019
                       cart. coord. in units 2pi/a_0
        k(    1) = (   0.0000000   0.0000000   0.0000000), wk =   1.0000000
        k(    2) = (   0.0000000   0.0000000   0.0000000), wk =   1.0000000

     G cutoff = 3590.7196  ( 635163 G-vectors)     FFT grid: (120,120, 96)
     G cutoff = 1436.2879  ( 160693 G-vectors)  smooth grid: ( 75, 72, 60)

     Largest allocated arrays     est. size (Mb)     dimensions
        Kohn-Sham Wavefunctions         3.86 Mb     (    314, 806)
        Atomic wavefunctions            2.30 Mb     (    314, 480)
        NL pseudopotentials             4.37 Mb     (    314, 912)
        Each V/rho on FFT grid          0.88 Mb     (  28800,   2)
        Each G-vector array             0.08 Mb     (   9926)
        G-vector shells                 0.04 Mb     (   4971)
     Largest temporary arrays     est. size (Mb)     dimensions
        Auxiliary wavefunctions        15.45 Mb     (    314,3224)
        Each subspace H/S matrix      158.60 Mb     (   3224,3224)
        Each <psi_i|beta_j> matrix     11.22 Mb     (    912, 806)

     Check: negative/imaginary core charge=   -0.000004    0.000000

     The potential is recalculated from file :
     ./v2o5.save/charge-density.dat


     negative rho (up, down):  0.119E-01 0.119E-01

     Parameters of the lda+U calculation:
     Number of iteration with fixed ns =  0
     Starting ns and Hubbard U :
 enter write_ns
U( 1) =  0.0000      U( 2) =  3.1000
alpha( 1) =  0.0000      alpha( 2) =  0.0000
atom    1   Tr[ns(na)]=   4.6475128
atom    1   spin  1
eigenvalues:  0.3173955 0.4747092 0.4780751 0.5021629 0.5514353
 eigenvectors
 1  -0.0000000 -0.0000000  0.0242115  0.0000000  0.9997069
 2   0.0000000 -0.0000000 -0.9997069  0.0000000  0.0242115
 3   0.0472234 -0.9167140  0.0000000  0.3967435 -0.0000000
 4   0.0788503  0.3993683  0.0000000  0.9133934 -0.0000000
 5  -0.9957673 -0.0118502  0.0000000  0.0911427 -0.0000000
 occupations
 0.551  0.002 -0.000 -0.005  0.000
 0.002  0.482 -0.000  0.009  0.000
-0.000 -0.000  0.475  0.000 -0.004
-0.005  0.009  0.000  0.499 -0.000
 0.000  0.000 -0.004 -0.000  0.317
atom    1   spin  2
eigenvalues:  0.3174003 0.4746902 0.4780605 0.5021568 0.5514270
 eigenvectors
 1  -0.0000000 -0.0000000  0.0242134  0.0000000  0.9997068
 2   0.0000000 -0.0000000 -0.9997068  0.0000000  0.0242134
 3   0.0471892 -0.9168088  0.0000000  0.3965285 -0.0000000
 4   0.0788625  0.3991511 -0.0000000  0.9134873 -0.0000000
 5  -0.9957680 -0.0118355  0.0000000  0.0911375 -0.0000000
 occupations
 0.551  0.002 -0.000 -0.005  0.000
 0.002  0.482 -0.000  0.009  0.000
-0.000 -0.000  0.475  0.000 -0.004
-0.005  0.009  0.000  0.499 -0.000
 0.000  0.000 -0.004 -0.000  0.317
atom    2   Tr[ns(na)]=   4.6475136
atom    2   spin  1
eigenvalues:  0.3173953 0.4747093 0.4780748 0.5021630 0.5514353
 eigenvectors
 1  -0.0000000 -0.0000000  0.0242111  0.0000000  0.9997069
 2   0.0000000 -0.0000000 -0.9997069  0.0000000  0.0242111
 3   0.0472233 -0.9167174  0.0000000  0.3967356 -0.0000000
 4   0.0788540  0.3993604  0.0000000  0.9133966 -0.0000000
 5  -0.9957670 -0.0118494  0.0000000  0.0911460 -0.0000000
 occupations
 0.551  0.002 -0.000 -0.005  0.000
 0.002  0.482 -0.000  0.009  0.000
-0.000 -0.000  0.475  0.000 -0.004
-0.005  0.009  0.000  0.499 -0.000
 0.000  0.000 -0.004 -0.000  0.317
atom    2   spin  2
eigenvalues:  0.3174006 0.4746898 0.4780611 0.5021572 0.5514272
 eigenvectors
 1  -0.0000000 -0.0000000  0.0242136  0.0000000  0.9997068
 2   0.0000000 -0.0000000 -0.9997068  0.0000000  0.0242136
 3   0.0471903 -0.9168071  0.0000000  0.3965322 -0.0000000
 4   0.0788647  0.3991549 -0.0000000  0.9134855 -0.0000000
 5  -0.9957678 -0.0118352  0.0000000  0.0911400 -0.0000000
 occupations
 0.551  0.002 -0.000 -0.005  0.000
 0.002  0.482 -0.000  0.009  0.000
-0.000 -0.000  0.475  0.000 -0.004
-0.005  0.009  0.000  0.499 -0.000
 0.000  0.000 -0.004 -0.000  0.317
atom    3   Tr[ns(na)]=   4.6475126
atom    3   spin  1
eigenvalues:  0.3173954 0.4747087 0.4780756 0.5021628 0.5514353
 eigenvectors
 1   0.0000002 -0.0000000  0.0242115 -0.0000000  0.9997069
 2   0.0000027 -0.0000610  0.9997069  0.0000237 -0.0242115
 3   0.0472253 -0.9167099 -0.0000655  0.3967528  0.0000016
 4   0.0788520  0.3993777  0.0000025  0.9133892 -0.0000001
 5   0.9957671  0.0118503  0.0000002 -0.0911451 -0.0000002
 occupations
 0.551  0.002  0.000 -0.005 -0.000
 0.002  0.482  0.000  0.009 -0.000
 0.000  0.000  0.475 -0.000 -0.004
-0.005  0.009 -0.000  0.499  0.000
-0.000 -0.000 -0.004  0.000  0.317
atom    3   spin  2
eigenvalues:  0.3174003 0.4746900 0.4780606 0.5021567 0.5514270
 eigenvectors
 1   0.0000003  0.0000003  0.0242131  0.0000000  0.9997068
 2   0.0000005  0.0000024 -0.9997068 -0.0000005  0.0242131
 3  -0.0471914  0.9168068  0.0000024 -0.3965328 -0.0000003
 4  -0.0788642 -0.3991556 -0.0000005 -0.9134852  0.0000002
 5  -0.9957678 -0.0118364 -0.0000005  0.0911399  0.0000003
 occupations
 0.551  0.002  0.000 -0.005 -0.000
 0.002  0.482  0.000  0.009 -0.000
 0.000  0.000  0.475  0.000 -0.004
-0.005  0.009  0.000  0.499 -0.000
-0.000 -0.000 -0.004 -0.000  0.317
atom    4   Tr[ns(na)]=   4.6475134
atom    4   spin  1
eigenvalues:  0.3173954 0.4747080 0.4780756 0.5021631 0.5514355
 eigenvectors
 1   0.0000006 -0.0000002  0.0242109  0.0000001  0.9997069
 2  -0.0000052  0.0001273 -0.9997069 -0.0000473  0.0242109
 3  -0.0472277  0.9167098  0.0001357 -0.3967527 -0.0000031
 4   0.0788557  0.3993780  0.0000073  0.9133888 -0.0000002
 5   0.9957667  0.0118510  0.0000006 -0.0911494 -0.0000006
 occupations
 0.551  0.002  0.000 -0.005 -0.000
 0.002  0.482  0.000  0.009  0.000
 0.000  0.000  0.475 -0.000 -0.004
-0.005  0.009 -0.000  0.499 -0.000
-0.000  0.000 -0.004 -0.000  0.317
atom    4   spin  2
eigenvalues:  0.3174006 0.4746898 0.4780609 0.5021571 0.5514274
 eigenvectors
 1   0.0000008  0.0000004  0.0242128  0.0000001  0.9997068
 2   0.0000023 -0.0000118 -0.9997068  0.0000085  0.0242128
 3  -0.0471937  0.9168053 -0.0000143 -0.3965359  0.0000001
 4   0.0788679  0.3991589  0.0000032  0.9134834 -0.0000004
 5   0.9957673  0.0118367  0.0000014 -0.0911443 -0.0000008
 occupations
 0.551  0.002  0.000 -0.005 -0.000
 0.002  0.482 -0.000  0.009 -0.000
 0.000 -0.000  0.475  0.000 -0.004
-0.005  0.009  0.000  0.499 -0.000
-0.000 -0.000 -0.004 -0.000  0.317
atom    5   Tr[ns(na)]=   4.6475126
atom    5   spin  1
eigenvalues:  0.3173954 0.4747087 0.4780756 0.5021628 0.5514353
 eigenvectors
 1  -0.0000002  0.0000000  0.0242115  0.0000000  0.9997069
 2   0.0000027 -0.0000610 -0.9997069  0.0000237  0.0242115
 3  -0.0472253  0.9167099 -0.0000655 -0.3967528  0.0000016
 4   0.0788520  0.3993777 -0.0000025  0.9133892  0.0000001
 5   0.9957671  0.0118503 -0.0000002 -0.0911451  0.0000002
 occupations
 0.551  0.002 -0.000 -0.005  0.000
 0.002  0.482 -0.000  0.009  0.000
-0.000 -0.000  0.475  0.000 -0.004
-0.005  0.009  0.000  0.499 -0.000
 0.000  0.000 -0.004 -0.000  0.317
atom    5   spin  2
eigenvalues:  0.3174003 0.4746900 0.4780606 0.5021567 0.5514270
 eigenvectors
 1  -0.0000003 -0.0000003  0.0242131 -0.0000000  0.9997068
 2   0.0000005  0.0000024  0.9997068 -0.0000005 -0.0242131
 3   0.0471914 -0.9168068  0.0000024  0.3965328 -0.0000003
 4  -0.0788642 -0.3991556  0.0000005 -0.9134852 -0.0000002
 5  -0.9957678 -0.0118364  0.0000005  0.0911399 -0.0000003
 occupations
 0.551  0.002 -0.000 -0.005  0.000
 0.002  0.482 -0.000  0.009  0.000
-0.000 -0.000  0.475 -0.000 -0.004
-0.005  0.009 -0.000  0.499  0.000
 0.000  0.000 -0.004  0.000  0.317
atom    6   Tr[ns(na)]=   4.6475134
atom    6   spin  1
eigenvalues:  0.3173954 0.4747080 0.4780756 0.5021631 0.5514355
 eigenvectors
 1  -0.0000006  0.0000002  0.0242109 -0.0000001  0.9997069
 2  -0.0000052  0.0001273  0.9997069 -0.0000473 -0.0242109
 3   0.0472277 -0.9167098  0.0001357  0.3967527 -0.0000031
 4   0.0788557  0.3993780 -0.0000073  0.9133888  0.0000002
 5   0.9957667  0.0118510 -0.0000006 -0.0911494  0.0000006
 occupations
 0.551  0.002 -0.000 -0.005  0.000
 0.002  0.482 -0.000  0.009 -0.000
-0.000 -0.000  0.475  0.000 -0.004
-0.005  0.009  0.000  0.499  0.000
 0.000 -0.000 -0.004  0.000  0.317
atom    6   spin  2
eigenvalues:  0.3174006 0.4746898 0.4780609 0.5021571 0.5514274
 eigenvectors
 1  -0.0000008 -0.0000004  0.0242128 -0.0000001  0.9997068
 2   0.0000023 -0.0000118  0.9997068  0.0000085 -0.0242128
 3   0.0471937 -0.9168053 -0.0000143  0.3965359  0.0000001
 4   0.0788679  0.3991589 -0.0000032  0.9134834  0.0000004
 5   0.9957673  0.0118367 -0.0000014 -0.0911443  0.0000008
 occupations
 0.551  0.002 -0.000 -0.005  0.000
 0.002  0.482  0.000  0.009  0.000
-0.000  0.000  0.475 -0.000 -0.004
-0.005  0.009 -0.000  0.499  0.000
 0.000  0.000 -0.004  0.000  0.317
atom    7   Tr[ns(na)]=   4.6475073
atom    7   spin  1
eigenvalues:  0.3173966 0.4747072 0.4780744 0.5021635 0.5514331
 eigenvectors
 1  -0.0000004  0.0000001  0.0242088 -0.0000001  0.9997069
 2  -0.0000013  0.0000301  0.9997069 -0.0000115 -0.0242088
 3   0.0472282 -0.9167331  0.0000322  0.3966987 -0.0000007
 4   0.0788590  0.3993242 -0.0000014  0.9134120  0.0000001
 5   0.9957664  0.0118555 -0.0000001 -0.0911520  0.0000003
 occupations
 0.551  0.002 -0.000 -0.005  0.000
 0.002  0.482 -0.000  0.009 -0.000
-0.000 -0.000  0.475  0.000 -0.004
-0.005  0.009  0.000  0.499  0.000
 0.000 -0.000 -0.004  0.000  0.317
atom    7   spin  2
eigenvalues:  0.3174020 0.4746881 0.4780599 0.5021575 0.5514250
 eigenvectors
 1  -0.0000004 -0.0000000  0.0242112 -0.0000001  0.9997069
 2   0.0000008  0.0000071  0.9997069 -0.0000001 -0.0242112
 3   0.0471949 -0.9168270  0.0000065  0.3964857 -0.0000001
 4  -0.0788706 -0.3991090  0.0000028 -0.9135050 -0.0000002
 5  -0.9957671 -0.0118418  0.0000009  0.0911466 -0.0000004
 occupations
 0.551  0.002 -0.000 -0.005  0.000
 0.002  0.482 -0.000  0.009  0.000
-0.000 -0.000  0.475 -0.000 -0.004
-0.005  0.009 -0.000  0.499  0.000
 0.000  0.000 -0.004  0.000  0.317
atom    8   Tr[ns(na)]=   4.6475067
atom    8   spin  1
eigenvalues:  0.3173966 0.4747072 0.4780746 0.5021633 0.5514330
 eigenvectors
 1   0.0000001 -0.0000000  0.0242095 -0.0000000  0.9997069
 2   0.0000000 -0.0000052  0.9997069  0.0000013 -0.0242095
 3   0.0472269 -0.9167317 -0.0000052  0.3967023  0.0000001
 4  -0.0788551 -0.3993276 -0.0000009 -0.9134108  0.0000000
 5  -0.9957668 -0.0118556 -0.0000002  0.0911479  0.0000001
 occupations
 0.551  0.002  0.000 -0.005 -0.000
 0.002  0.482  0.000  0.009  0.000
 0.000  0.000  0.475  0.000 -0.004
-0.005  0.009  0.000  0.499  0.000
-0.000  0.000 -0.004  0.000  0.317
atom    8   spin  2
eigenvalues:  0.3174017 0.4746885 0.4780595 0.5021573 0.5514248
 eigenvectors
 1  -0.0000000  0.0000000  0.0242113 -0.0000001  0.9997069
 2   0.0000009 -0.0000235  0.9997069  0.0000087 -0.0242113
 3  -0.0471932  0.9168289  0.0000250 -0.3964816 -0.0000007
 4   0.0788678  0.3991048  0.0000013  0.9135071  0.0000001
 5  -0.9957674 -0.0118416 -0.0000002  0.0911433 -0.0000000
 occupations
 0.551  0.002  0.000 -0.005  0.000
 0.002  0.482  0.000  0.009 -0.000
 0.000  0.000  0.475 -0.000 -0.004
-0.005  0.009 -0.000  0.499  0.000
 0.000 -0.000 -0.004  0.000  0.317
atom    9   Tr[ns(na)]=   4.6475070
atom    9   spin  1
eigenvalues:  0.3173967 0.4747062 0.4780750 0.5021636 0.5514332
 eigenvectors
 1  -0.0000000 -0.0000000  0.0242089  0.0000000  0.9997069
 2   0.0000000 -0.0000000 -0.9997069  0.0000000  0.0242089
 3   0.0472317 -0.9167280  0.0000000  0.3967100 -0.0000000
 4   0.0788605  0.3993358 -0.0000000  0.9134068 -0.0000000
 5  -0.9957661 -0.0118570  0.0000000  0.0911549 -0.0000000
 occupations
 0.551  0.002 -0.000 -0.005  0.000
 0.002  0.482 -0.000  0.009  0.000
-0.000 -0.000  0.475  0.000 -0.004
-0.005  0.009  0.000  0.499 -0.000
 0.000  0.000 -0.004 -0.000  0.317
atom    9   spin  2
eigenvalues:  0.3174019 0.4746883 0.4780597 0.5021574 0.5514251
 eigenvectors
 1  -0.0000000 -0.0000000  0.0242105  0.0000000  0.9997069
 2   0.0000000 -0.0000000 -0.9997069  0.0000000  0.0242105
 3   0.0471962 -0.9168266  0.0000000  0.3964864 -0.0000000
 4   0.0788735  0.3991099 -0.0000000  0.9135044 -0.0000000
 5  -0.9957668 -0.0118416  0.0000000  0.0911498 -0.0000000
 occupations
 0.551  0.002 -0.000 -0.005  0.000
 0.002  0.482 -0.000  0.009  0.000
-0.000 -0.000  0.475  0.000 -0.004
-0.005  0.009  0.000  0.499 -0.000
 0.000  0.000 -0.004 -0.000  0.317
atom   10   Tr[ns(na)]=   4.6475062
atom   10   spin  1
eigenvalues:  0.3173966 0.4747068 0.4780750 0.5021633 0.5514330
 eigenvectors
 1  -0.0000000 -0.0000000  0.0242098  0.0000000  0.9997069
 2   0.0000000 -0.0000000 -0.9997069  0.0000000  0.0242098
 3   0.0472280 -0.9167296  0.0000000  0.3967069 -0.0000000
 4   0.0788562  0.3993323  0.0000000  0.9134087 -0.0000000
 5  -0.9957666 -0.0118557  0.0000000  0.0911495 -0.0000000
 occupations
 0.551  0.002 -0.000 -0.005  0.000
 0.002  0.482 -0.000  0.009  0.000
-0.000 -0.000  0.475  0.000 -0.004
-0.005  0.009  0.000  0.499 -0.000
 0.000  0.000 -0.004 -0.000  0.317
atom   10   spin  2
eigenvalues:  0.3174017 0.4746885 0.4780595 0.5021571 0.5514247
 eigenvectors
 1  -0.0000000 -0.0000000  0.0242111  0.0000000  0.9997069
 2   0.0000000 -0.0000000 -0.9997069  0.0000000  0.0242111
 3   0.0471932 -0.9168289  0.0000000  0.3964815 -0.0000000
 4   0.0788699  0.3991047 -0.0000000  0.9135070 -0.0000000
 5  -0.9957672 -0.0118409  0.0000000  0.0911452 -0.0000000
 occupations
 0.551  0.002 -0.000 -0.005  0.000
 0.002  0.482 -0.000  0.009  0.000
-0.000 -0.000  0.475  0.000 -0.004
-0.005  0.009  0.000  0.499 -0.000
 0.000  0.000 -0.004 -0.000  0.317
atom   11   Tr[ns(na)]=   4.6475073
atom   11   spin  1
eigenvalues:  0.3173966 0.4747072 0.4780744 0.5021635 0.5514331
 eigenvectors
 1   0.0000004 -0.0000001  0.0242088  0.0000001  0.9997069
 2  -0.0000013  0.0000301 -0.9997069 -0.0000115  0.0242088
 3  -0.0472282  0.9167331  0.0000322 -0.3966987 -0.0000007
 4   0.0788590  0.3993242  0.0000014  0.9134120 -0.0000001
 5   0.9957664  0.0118555  0.0000001 -0.0911520 -0.0000003
 occupations
 0.551  0.002  0.000 -0.005 -0.000
 0.002  0.482  0.000  0.009  0.000
 0.000  0.000  0.475 -0.000 -0.004
-0.005  0.009 -0.000  0.499 -0.000
-0.000  0.000 -0.004 -0.000  0.317
atom   11   spin  2
eigenvalues:  0.3174020 0.4746881 0.4780599 0.5021575 0.5514250
 eigenvectors
 1   0.0000004  0.0000000  0.0242112  0.0000001  0.9997069
 2   0.0000008  0.0000071 -0.9997069 -0.0000001  0.0242112
 3   0.0471949 -0.9168270 -0.0000065  0.3964857  0.0000001
 4  -0.0788706 -0.3991090 -0.0000028 -0.9135050  0.0000002
 5   0.9957671  0.0118418  0.0000009 -0.0911466 -0.0000004
 occupations
 0.551  0.002  0.000 -0.005 -0.000
 0.002  0.482  0.000  0.009 -0.000
 0.000  0.000  0.475  0.000 -0.004
-0.005  0.009  0.000  0.499 -0.000
-0.000 -0.000 -0.004 -0.000  0.317
atom   12   Tr[ns(na)]=   4.6475067
atom   12   spin  1
eigenvalues:  0.3173966 0.4747072 0.4780746 0.5021633 0.5514330
 eigenvectors
 1  -0.0000001  0.0000000  0.0242095  0.0000000  0.9997069
 2   0.0000000 -0.0000052 -0.9997069  0.0000013  0.0242095
 3  -0.0472269  0.9167317 -0.0000052 -0.3967023  0.0000001
 4  -0.0788551 -0.3993276  0.0000009 -0.9134108 -0.0000000
 5  -0.9957668 -0.0118556  0.0000002  0.0911479 -0.0000001
 occupations
 0.551  0.002 -0.000 -0.005  0.000
 0.002  0.482 -0.000  0.009 -0.000
-0.000 -0.000  0.475 -0.000 -0.004
-0.005  0.009 -0.000  0.499 -0.000
 0.000 -0.000 -0.004 -0.000  0.317
atom   12   spin  2
eigenvalues:  0.3174017 0.4746885 0.4780595 0.5021573 0.5514248
 eigenvectors
 1   0.0000000 -0.0000000  0.0242113  0.0000001  0.9997069
 2   0.0000009 -0.0000235 -0.9997069  0.0000087  0.0242113
 3   0.0471932 -0.9168289  0.0000250  0.3964816 -0.0000007
 4   0.0788678  0.3991048 -0.0000013  0.9135071 -0.0000001
 5  -0.9957674 -0.0118416  0.0000002  0.0911433  0.0000000
 occupations
 0.551  0.002 -0.000 -0.005 -0.000
 0.002  0.482 -0.000  0.009  0.000
-0.000 -0.000  0.475  0.000 -0.004
-0.005  0.009  0.000  0.499 -0.000
-0.000  0.000 -0.004 -0.000  0.317
atom   13   Tr[ns(na)]=   4.6475073
atom   13   spin  1
eigenvalues:  0.3173966 0.4747072 0.4780744 0.5021635 0.5514331
 eigenvectors
 1   0.0000004  0.0000001 -0.0242088  0.0000001  0.9997069
 2  -0.0000013 -0.0000301  0.9997069 -0.0000115  0.0242088
 3  -0.0472282 -0.9167331 -0.0000322 -0.3966987 -0.0000007
 4   0.0788590 -0.3993242 -0.0000014  0.9134120 -0.0000001
 5   0.9957664 -0.0118555 -0.0000001 -0.0911520 -0.0000003
 occupations
 0.551 -0.002 -0.000 -0.005 -0.000
-0.002  0.482  0.000 -0.009 -0.000
-0.000  0.000  0.475  0.000  0.004
-0.005 -0.009  0.000  0.499 -0.000
-0.000 -0.000  0.004 -0.000  0.317
atom   13   spin  2
eigenvalues:  0.3174020 0.4746881 0.4780599 0.5021575 0.5514250
 eigenvectors
 1   0.0000004 -0.0000000 -0.0242112  0.0000001  0.9997069
 2   0.0000008 -0.0000071  0.9997069 -0.0000001  0.0242112
 3   0.0471949  0.9168270  0.0000065  0.3964857  0.0000001
 4   0.0788706 -0.3991090 -0.0000028  0.9135050 -0.0000002
 5  -0.9957671  0.0118418  0.0000009  0.0911466  0.0000004
 occupations
 0.551 -0.002 -0.000 -0.005 -0.000
-0.002  0.482  0.000 -0.009  0.000
-0.000  0.000  0.475 -0.000  0.004
-0.005 -0.009 -0.000  0.499 -0.000
-0.000  0.000  0.004 -0.000  0.317
atom   14   Tr[ns(na)]=   4.6475067
atom   14   spin  1
eigenvalues:  0.3173966 0.4747072 0.4780746 0.5021633 0.5514330
 eigenvectors
 1  -0.0000001 -0.0000000 -0.0242095  0.0000000  0.9997069
 2   0.0000000  0.0000052  0.9997069  0.0000013  0.0242095
 3  -0.0472269 -0.9167317  0.0000052 -0.3967023  0.0000001
 4  -0.0788551  0.3993276 -0.0000009 -0.9134108 -0.0000000
 5  -0.9957668  0.0118556 -0.0000002  0.0911479 -0.0000001
 occupations
 0.551 -0.002  0.000 -0.005  0.000
-0.002  0.482 -0.000 -0.009  0.000
 0.000 -0.000  0.475  0.000  0.004
-0.005 -0.009  0.000  0.499 -0.000
 0.000  0.000  0.004 -0.000  0.317
atom   14   spin  2
eigenvalues:  0.3174017 0.4746885 0.4780595 0.5021573 0.5514248
 eigenvectors
 1   0.0000000  0.0000000 -0.0242113  0.0000001  0.9997069
 2   0.0000009  0.0000235  0.9997069  0.0000087  0.0242113
 3  -0.0471932 -0.9168289  0.0000250 -0.3964816  0.0000007
 4  -0.0788678  0.3991048 -0.0000013 -0.9135071  0.0000001
 5  -0.9957674  0.0118416 -0.0000002  0.0911433  0.0000000
 occupations
 0.551 -0.002  0.000 -0.005 -0.000
-0.002  0.482 -0.000 -0.009 -0.000
 0.000 -0.000  0.475 -0.000  0.004
-0.005 -0.009 -0.000  0.499 -0.000
-0.000 -0.000  0.004 -0.000  0.317
atom   15   Tr[ns(na)]=   4.6475070
atom   15   spin  1
eigenvalues:  0.3173967 0.4747062 0.4780750 0.5021636 0.5514332
 eigenvectors
 1  -0.0000000 -0.0000000 -0.0242089  0.0000000  0.9997069
 2   0.0000000  0.0000000  0.9997069  0.0000000  0.0242089
 3  -0.0472317 -0.9167280  0.0000000 -0.3967100  0.0000000
 4  -0.0788605  0.3993358 -0.0000000 -0.9134068  0.0000000
 5   0.9957661 -0.0118570 -0.0000000 -0.0911549  0.0000000
 occupations
 0.551 -0.002 -0.000 -0.005  0.000
-0.002  0.482 -0.000 -0.009  0.000
-0.000 -0.000  0.475  0.000  0.004
-0.005 -0.009  0.000  0.499 -0.000
 0.000  0.000  0.004 -0.000  0.317
atom   15   spin  2
eigenvalues:  0.3174019 0.4746883 0.4780597 0.5021574 0.5514251
 eigenvectors
 1  -0.0000000 -0.0000000 -0.0242105  0.0000000  0.9997069
 2   0.0000000  0.0000000  0.9997069  0.0000000  0.0242105
 3  -0.0471962 -0.9168266  0.0000000 -0.3964864  0.0000000
 4  -0.0788735  0.3991099 -0.0000000 -0.9135044  0.0000000
 5   0.9957668 -0.0118416 -0.0000000 -0.0911498  0.0000000
 occupations
 0.551 -0.002 -0.000 -0.005  0.000
-0.002  0.482 -0.000 -0.009  0.000
-0.000 -0.000  0.475  0.000  0.004
-0.005 -0.009  0.000  0.499 -0.000
 0.000  0.000  0.004 -0.000  0.317
atom   16   Tr[ns(na)]=   4.6475062
atom   16   spin  1
eigenvalues:  0.3173966 0.4747068 0.4780750 0.5021633 0.5514330
 eigenvectors
 1  -0.0000000 -0.0000000 -0.0242098  0.0000000  0.9997069
 2   0.0000000  0.0000000  0.9997069  0.0000000  0.0242098
 3  -0.0472280 -0.9167296  0.0000000 -0.3967069  0.0000000
 4  -0.0788562  0.3993323 -0.0000000 -0.9134087  0.0000000
 5   0.9957666 -0.0118557 -0.0000000 -0.0911495  0.0000000
 occupations
 0.551 -0.002 -0.000 -0.005  0.000
-0.002  0.482 -0.000 -0.009  0.000
-0.000 -0.000  0.475  0.000  0.004
-0.005 -0.009  0.000  0.499 -0.000
 0.000  0.000  0.004 -0.000  0.317
atom   16   spin  2
eigenvalues:  0.3174017 0.4746885 0.4780595 0.5021571 0.5514247
 eigenvectors
 1  -0.0000000 -0.0000000 -0.0242111  0.0000000  0.9997069
 2   0.0000000  0.0000000  0.9997069  0.0000000  0.0242111
 3  -0.0471932 -0.9168289  0.0000000 -0.3964815  0.0000000
 4  -0.0788699  0.3991047 -0.0000000 -0.9135070  0.0000000
 5   0.9957672 -0.0118409 -0.0000000 -0.0911452  0.0000000
 occupations
 0.551 -0.002 -0.000 -0.005  0.000
-0.002  0.482 -0.000 -0.009  0.000
-0.000 -0.000  0.475  0.000  0.004
-0.005 -0.009  0.000  0.499 -0.000
 0.000  0.000  0.004 -0.000  0.317
atom   17   Tr[ns(na)]=   4.6475073
atom   17   spin  1
eigenvalues:  0.3173966 0.4747072 0.4780744 0.5021635 0.5514331
 eigenvectors
 1  -0.0000004 -0.0000001 -0.0242088 -0.0000001  0.9997069
 2  -0.0000013 -0.0000301 -0.9997069 -0.0000115 -0.0242088
 3   0.0472282  0.9167331 -0.0000322  0.3966987 -0.0000007
 4   0.0788590 -0.3993242  0.0000014  0.9134120  0.0000001
 5   0.9957664 -0.0118555  0.0000001 -0.0911520  0.0000003
 occupations
 0.551 -0.002  0.000 -0.005  0.000
-0.002  0.482 -0.000 -0.009  0.000
 0.000 -0.000  0.475 -0.000  0.004
-0.005 -0.009 -0.000  0.499  0.000
 0.000  0.000  0.004  0.000  0.317
atom   17   spin  2
eigenvalues:  0.3174020 0.4746881 0.4780599 0.5021575 0.5514250
 eigenvectors
 1  -0.0000004  0.0000000 -0.0242112 -0.0000001  0.9997069
 2   0.0000008 -0.0000071 -0.9997069 -0.0000001 -0.0242112
 3   0.0471949  0.9168270 -0.0000065  0.3964857 -0.0000001
 4   0.0788706 -0.3991090  0.0000028  0.9135050  0.0000002
 5   0.9957671 -0.0118418  0.0000009 -0.0911466  0.0000004
 occupations
 0.551 -0.002  0.000 -0.005  0.000
-0.002  0.482 -0.000 -0.009 -0.000
 0.000 -0.000  0.475  0.000  0.004
-0.005 -0.009  0.000  0.499  0.000
 0.000 -0.000  0.004  0.000  0.317
atom   18   Tr[ns(na)]=   4.6475067
atom   18   spin  1
eigenvalues:  0.3173966 0.4747072 0.4780746 0.5021633 0.5514330
 eigenvectors
 1   0.0000001  0.0000000 -0.0242095 -0.0000000  0.9997069
 2   0.0000000  0.0000052 -0.9997069  0.0000013 -0.0242095
 3   0.0472269  0.9167317  0.0000052  0.3967023  0.0000001
 4  -0.0788551  0.3993276  0.0000009 -0.9134108  0.0000000
 5  -0.9957668  0.0118556  0.0000002  0.0911479  0.0000001
 occupations
 0.551 -0.002 -0.000 -0.005 -0.000
-0.002  0.482  0.000 -0.009 -0.000
-0.000  0.000  0.475 -0.000  0.004
-0.005 -0.009 -0.000  0.499  0.000
-0.000 -0.000  0.004  0.000  0.317
atom   18   spin  2
eigenvalues:  0.3174017 0.4746885 0.4780595 0.5021573 0.5514248
 eigenvectors
 1  -0.0000000 -0.0000000 -0.0242113 -0.0000001  0.9997069
 2   0.0000009  0.0000235 -0.9997069  0.0000087 -0.0242113
 3   0.0471932  0.9168289  0.0000250  0.3964816  0.0000007
 4  -0.0788678  0.3991048  0.0000013 -0.9135071 -0.0000001
 5  -0.9957674  0.0118416  0.0000002  0.0911433 -0.0000000
 occupations
 0.551 -0.002 -0.000 -0.005  0.000
-0.002  0.482  0.000 -0.009  0.000
-0.000  0.000  0.475  0.000  0.004
-0.005 -0.009  0.000  0.499  0.000
 0.000  0.000  0.004  0.000  0.317
atom   19   Tr[ns(na)]=   4.6475128
atom   19   spin  1
eigenvalues:  0.3173955 0.4747092 0.4780751 0.5021629 0.5514353
 eigenvectors
 1  -0.0000000 -0.0000000 -0.0242115  0.0000000  0.9997069
 2   0.0000000  0.0000000  0.9997069  0.0000000  0.0242115
 3  -0.0472234 -0.9167140  0.0000000 -0.3967435  0.0000000
 4  -0.0788503  0.3993683 -0.0000000 -0.9133934  0.0000000
 5   0.9957673 -0.0118502 -0.0000000 -0.0911427  0.0000000
 occupations
 0.551 -0.002 -0.000 -0.005  0.000
-0.002  0.482 -0.000 -0.009  0.000
-0.000 -0.000  0.475  0.000  0.004
-0.005 -0.009  0.000  0.499 -0.000
 0.000  0.000  0.004 -0.000  0.317
atom   19   spin  2
eigenvalues:  0.3174003 0.4746902 0.4780605 0.5021568 0.5514270
 eigenvectors
 1  -0.0000000 -0.0000000 -0.0242134  0.0000000  0.9997068
 2   0.0000000  0.0000000  0.9997068  0.0000000  0.0242134
 3  -0.0471892 -0.9168088  0.0000000 -0.3965285  0.0000000
 4  -0.0788625  0.3991511 -0.0000000 -0.9134873  0.0000000
 5   0.9957680 -0.0118355 -0.0000000 -0.0911375  0.0000000
 occupations
 0.551 -0.002 -0.000 -0.005  0.000
-0.002  0.482 -0.000 -0.009  0.000
-0.000 -0.000  0.475  0.000  0.004
-0.005 -0.009  0.000  0.499 -0.000
 0.000  0.000  0.004 -0.000  0.317
atom   20   Tr[ns(na)]=   4.6475136
atom   20   spin  1
eigenvalues:  0.3173953 0.4747093 0.4780748 0.5021630 0.5514353
 eigenvectors
 1  -0.0000000 -0.0000000 -0.0242111  0.0000000  0.9997069
 2   0.0000000  0.0000000  0.9997069  0.0000000  0.0242111
 3  -0.0472233 -0.9167174  0.0000000 -0.3967356  0.0000000
 4  -0.0788540  0.3993604 -0.0000000 -0.9133966  0.0000000
 5   0.9957670 -0.0118494 -0.0000000 -0.0911460  0.0000000
 occupations
 0.551 -0.002 -0.000 -0.005  0.000
-0.002  0.482 -0.000 -0.009  0.000
-0.000 -0.000  0.475  0.000  0.004
-0.005 -0.009  0.000  0.499 -0.000
 0.000  0.000  0.004 -0.000  0.317
atom   20   spin  2
eigenvalues:  0.3174006 0.4746898 0.4780611 0.5021572 0.5514272
 eigenvectors
 1  -0.0000000 -0.0000000 -0.0242136  0.0000000  0.9997068
 2   0.0000000  0.0000000  0.9997068  0.0000000  0.0242136
 3  -0.0471903 -0.9168071  0.0000000 -0.3965322  0.0000000
 4  -0.0788647  0.3991549 -0.0000000 -0.9134855  0.0000000
 5   0.9957678 -0.0118352 -0.0000000 -0.0911400  0.0000000
 occupations
 0.551 -0.002 -0.000 -0.005  0.000
-0.002  0.482 -0.000 -0.009  0.000
-0.000 -0.000  0.475  0.000  0.004
-0.005 -0.009  0.000  0.499 -0.000
 0.000  0.000  0.004 -0.000  0.317
atom   21   Tr[ns(na)]=   4.6475126
atom   21   spin  1
eigenvalues:  0.3173954 0.4747087 0.4780756 0.5021628 0.5514353
 eigenvectors
 1  -0.0000002 -0.0000000 -0.0242115  0.0000000  0.9997069
 2   0.0000027  0.0000610  0.9997069  0.0000237  0.0242115
 3  -0.0472253 -0.9167099  0.0000655 -0.3967528  0.0000016
 4   0.0788520 -0.3993777  0.0000025  0.9133892  0.0000001
 5   0.9957671 -0.0118503  0.0000002 -0.0911451  0.0000002
 occupations
 0.551 -0.002  0.000 -0.005  0.000
-0.002  0.482 -0.000 -0.009 -0.000
 0.000 -0.000  0.475 -0.000  0.004
-0.005 -0.009 -0.000  0.499 -0.000
 0.000 -0.000  0.004 -0.000  0.317
atom   21   spin  2
eigenvalues:  0.3174003 0.4746900 0.4780606 0.5021567 0.5514270
 eigenvectors
 1  -0.0000003  0.0000003 -0.0242131 -0.0000000  0.9997068
 2   0.0000005 -0.0000024 -0.9997068 -0.0000005 -0.0242131
 3   0.0471914  0.9168068 -0.0000024  0.3965328 -0.0000003
 4  -0.0788642  0.3991556 -0.0000005 -0.9134852 -0.0000002
 5  -0.9957678  0.0118364 -0.0000005  0.0911399 -0.0000003
 occupations
 0.551 -0.002  0.000 -0.005  0.000
-0.002  0.482 -0.000 -0.009 -0.000
 0.000 -0.000  0.475  0.000  0.004
-0.005 -0.009  0.000  0.499  0.000
 0.000 -0.000  0.004  0.000  0.317
atom   22   Tr[ns(na)]=   4.6475134
atom   22   spin  1
eigenvalues:  0.3173954 0.4747080 0.4780756 0.5021631 0.5514355
 eigenvectors
 1  -0.0000006 -0.0000002 -0.0242109 -0.0000001  0.9997069
 2  -0.0000052 -0.0001273 -0.9997069 -0.0000473 -0.0242109
 3   0.0472277  0.9167098 -0.0001357  0.3967527 -0.0000031
 4   0.0788557 -0.3993780  0.0000073  0.9133888  0.0000002
 5   0.9957667 -0.0118510  0.0000006 -0.0911494  0.0000006
 occupations
 0.551 -0.002  0.000 -0.005  0.000
-0.002  0.482 -0.000 -0.009  0.000
 0.000 -0.000  0.475 -0.000  0.004
-0.005 -0.009 -0.000  0.499  0.000
 0.000  0.000  0.004  0.000  0.317
atom   22   spin  2
eigenvalues:  0.3174006 0.4746898 0.4780609 0.5021571 0.5514274
 eigenvectors
 1  -0.0000008  0.0000004 -0.0242128 -0.0000001  0.9997068
 2   0.0000023  0.0000118 -0.9997068  0.0000085 -0.0242128
 3   0.0471937  0.9168053  0.0000143  0.3965359  0.0000001
 4   0.0788679 -0.3991589  0.0000032  0.9134834  0.0000004
 5   0.9957673 -0.0118367  0.0000014 -0.0911443  0.0000008
 occupations
 0.551 -0.002  0.000 -0.005  0.000
-0.002  0.482  0.000 -0.009 -0.000
 0.000  0.000  0.475  0.000  0.004
-0.005 -0.009  0.000  0.499  0.000
 0.000 -0.000  0.004  0.000  0.317
atom   23   Tr[ns(na)]=   4.6475126
atom   23   spin  1
eigenvalues:  0.3173954 0.4747087 0.4780756 0.5021628 0.5514353
 eigenvectors
 1   0.0000002  0.0000000 -0.0242115 -0.0000000  0.9997069
 2   0.0000027  0.0000610 -0.9997069  0.0000237 -0.0242115
 3   0.0472253  0.9167099  0.0000655  0.3967528  0.0000016
 4   0.0788520 -0.3993777 -0.0000025  0.9133892 -0.0000001
 5   0.9957671 -0.0118503 -0.0000002 -0.0911451 -0.0000002
 occupations
 0.551 -0.002 -0.000 -0.005 -0.000
-0.002  0.482  0.000 -0.009  0.000
-0.000  0.000  0.475  0.000  0.004
-0.005 -0.009  0.000  0.499  0.000
-0.000  0.000  0.004  0.000  0.317
atom   23   spin  2
eigenvalues:  0.3174003 0.4746900 0.4780606 0.5021567 0.5514270
 eigenvectors
 1   0.0000003 -0.0000003 -0.0242131  0.0000000  0.9997068
 2   0.0000005 -0.0000024  0.9997068 -0.0000005  0.0242131
 3  -0.0471914 -0.9168068 -0.0000024 -0.3965328 -0.0000003
 4  -0.0788642  0.3991556  0.0000005 -0.9134852  0.0000002
 5  -0.9957678  0.0118364  0.0000005  0.0911399  0.0000003
 occupations
 0.551 -0.002 -0.000 -0.005 -0.000
-0.002  0.482  0.000 -0.009  0.000
-0.000  0.000  0.475 -0.000  0.004
-0.005 -0.009 -0.000  0.499 -0.000
-0.000  0.000  0.004 -0.000  0.317
atom   24   Tr[ns(na)]=   4.6475134
atom   24   spin  1
eigenvalues:  0.3173954 0.4747080 0.4780756 0.5021631 0.5514355
 eigenvectors
 1   0.0000006  0.0000002 -0.0242109  0.0000001  0.9997069
 2  -0.0000052 -0.0001273  0.9997069 -0.0000473  0.0242109
 3  -0.0472277 -0.9167098 -0.0001357 -0.3967527 -0.0000031
 4   0.0788557 -0.3993780 -0.0000073  0.9133888 -0.0000002
 5   0.9957667 -0.0118510 -0.0000006 -0.0911494 -0.0000006
 occupations
 0.551 -0.002 -0.000 -0.005 -0.000
-0.002  0.482  0.000 -0.009 -0.000
-0.000  0.000  0.475  0.000  0.004
-0.005 -0.009  0.000  0.499 -0.000
-0.000 -0.000  0.004 -0.000  0.317
atom   24   spin  2
eigenvalues:  0.3174006 0.4746898 0.4780609 0.5021571 0.5514274
 eigenvectors
 1   0.0000008 -0.0000004 -0.0242128  0.0000001  0.9997068
 2   0.0000023  0.0000118  0.9997068  0.0000085  0.0242128
 3  -0.0471937 -0.9168053  0.0000143 -0.3965359  0.0000001
 4   0.0788679 -0.3991589 -0.0000032  0.9134834 -0.0000004
 5   0.9957673 -0.0118367 -0.0000014 -0.0911443 -0.0000008
 occupations
 0.551 -0.002 -0.000 -0.005 -0.000
-0.002  0.482 -0.000 -0.009  0.000
-0.000 -0.000  0.475 -0.000  0.004
-0.005 -0.009 -0.000  0.499 -0.000
-0.000  0.000  0.004 -0.000  0.317
nsum = 111.5402388
 exit write_ns
 Atomic wfc used for LDA+U Projector are NOT orthogonalized
     Starting wfc are  480 atomic +  326 random wfc

     total cpu time spent up to now is      3.79 secs

     per-process dynamical memory:   105.9 Mb

     Band Structure Calculation
     Davidson diagonalization with overlap

     ethr =  1.49E-12,  avg # of iterations = 37.0

     total cpu time spent up to now is    358.11 secs

     End of band structure calculation

 ------ SPIN UP ------------


          k = 0.0000 0.0000 0.0000     band energies (ev):

   -59.8627 -59.8624 -59.8602 -59.8602 -59.8568 -59.8568 -59.8567 -59.8567
   -59.8545 -59.8545 -59.8544 -59.8544 -59.8502 -59.8502 -59.8501 -59.8501
   -59.8494 -59.8494 -59.8484 -59.8484 -59.8484 -59.8484 -59.8474 -59.8473
   -33.8410 -33.8384 -33.8331 -33.8325 -33.8325 -33.8298 -33.8296 -33.8296
   -33.8292 -33.8279 -33.8279 -33.8244 -33.8244 -33.8240 -33.8240 -33.8238
   -33.8208 -33.8193 -33.8193 -33.8183 -33.8183 -33.8154 -33.8136 -33.8136
   -33.8054 -33.8054 -33.8054 -33.8051 -33.8050 -33.8050 -33.7818 -33.7818
   -33.7816 -33.7816 -33.7650 -33.7650 -33.7648 -33.7648 -33.7580 -33.7580
   -33.7576 -33.7576 -33.7560 -33.7555 -33.7216 -33.7215 -33.7023 -33.7021
   -33.7009 -33.7009 -33.7009 -33.7009 -33.6996 -33.6994 -33.6962 -33.6962
   -33.6961 -33.6961 -33.6810 -33.6810 -33.6810 -33.6810 -33.6713 -33.6713
   -33.6693 -33.6693 -33.6693 -33.6693 -33.6621 -33.6621 -33.6596 -33.6595
   -13.4550 -13.3491 -13.3140 -13.2229 -12.8662 -12.8662 -12.7704 -12.7704
   -12.6989 -12.6989 -12.6289 -12.6289 -12.3288 -12.2304 -12.2304 -12.2245
   -12.2128 -12.1748 -12.1690 -12.1690 -12.1291 -12.1182 -12.0622 -12.0622
   -12.0549 -12.0549 -12.0503 -12.0503 -12.0384 -11.9983 -11.9977 -11.9977
   -11.9887 -11.9887 -11.9518 -11.9518 -11.7455 -11.7326 -11.7297 -11.6926
   -11.6901 -11.6901 -11.6660 -11.6660 -11.6580 -11.6580 -11.6456 -11.6456
   -11.6067 -11.6067 -11.5908 -11.5874 -11.5874 -11.5521 -11.5421 -11.5421
   -11.5297 -11.4989 -11.4989 -11.4831  -0.6097  -0.6097  -0.6081  -0.6081
    -0.5740  -0.5740  -0.5650  -0.5650  -0.2195  -0.1822  -0.1753  -0.1223
    -0.1138  -0.0744  -0.0629  -0.0511  -0.0441   0.0049   0.0131   0.0131
     0.0206   0.0206   0.0855   0.0855   0.0906   0.0906   0.1151   0.1714
     0.1714   0.2411   0.2411   0.2466   0.2466   0.4355   0.4534   0.4951
     0.4951   0.5188   0.5188   0.5203   0.5203   0.6260   0.6260   0.6713
     0.6809   0.6809   0.7113   0.7117   0.7123   0.7123   0.7167   0.7167
     1.0165   1.1230   1.1230   1.2024   1.2024   1.2438   1.2438   1.2449
     1.2449   1.2750   1.3609   1.4648   1.4648   1.4867   1.4867   1.5237
     1.5481   1.5481   1.5487   1.5531   1.5531   1.5572   1.5572   1.5996
     1.6046   1.6343   1.6343   1.7058   1.7058   1.9097   1.9097   1.9287
     1.9344   1.9344   1.9439   1.9996   2.0119   2.0119   2.0151   2.0320
     2.0320   2.0543   2.0543   2.0922   2.2001   2.2330   2.2444   2.2444
     2.2699   2.2699   2.3026   2.3026   2.3310   2.3715   2.3805   2.3805
     2.4395   2.4395   2.4429   2.4728   2.5419   2.5559   2.5559   2.5613
     2.5902   2.5902   2.6080   2.6255   2.6255   2.6352   2.6712   2.6784
     2.6784   2.7712   2.7949   2.7997   2.8905   2.9117   2.9117   3.0358
     3.0358   3.0528   3.0710   3.1355   3.1355   3.2425   3.2425   3.2440
     3.3030   3.3069   3.3069   3.3202   3.3538   3.3618   3.3631   3.3631
     3.3770   3.4043   3.4043   3.4598   3.4924   3.5323   3.5449   3.5449
     3.6115   3.6181   3.6383   3.6383   3.7150   3.8339   3.8339   3.9152
     3.9152   3.9163   3.9163   3.9298   4.0452   4.0751   4.0751   4.1186
     4.1186   4.1384   4.1384   4.1990   4.2479   4.2479   4.2718   4.2718
     6.4263   6.5015   6.5570   6.6499   6.7181   6.7181   6.7722   6.7722
     6.9407   6.9407   6.9466   6.9466   7.4072   7.4072   7.4276   7.4276
     7.4536   7.4536   7.5611   7.5612   7.5612   7.5898   7.5898   7.6946
     7.7163   7.7392   7.7538   7.7572   7.7572   7.7957   7.7957   7.7978
     7.7978   7.8181   7.8210   7.8419   7.9040   7.9040   7.9131   7.9360
     7.9360   7.9470   7.9485   7.9485   7.9753   7.9753   8.1117   8.1117
     8.1848   8.2128   8.2128   8.2168   8.2168   8.2770   8.2770   8.2999
     8.2999   8.3192   8.3670   8.3670   8.4389   8.4435   8.4439   8.4439
     8.4729   8.4729   8.5694   8.5694   8.7521   8.7941   8.8001   8.8262
     8.9486   8.9706   9.0523   9.0523   9.0887   9.0971   9.1326   9.1326
     9.1397   9.2575   9.2575   9.4015   9.4015   9.4015   9.4289   9.5216
     9.6336   9.7739   9.7739   9.8219   9.8509  10.0055  10.0055  10.0148
    10.0703  10.0703  10.0851  10.0851  10.2069  10.2069  10.2357  10.2690
    10.3048  10.3048  10.3643  10.5398  10.5398  10.6226  10.8240  10.8240
    10.9259  10.9259  10.9525  10.9525  11.0104  11.0104  11.1386  11.1828
    11.8087  13.0450  13.6732  13.6732  13.9355  13.9969  14.2915  14.2962
    14.2962  14.7787  14.7787  14.8004  14.8004  15.1987  15.5290  15.5290
    15.5366  16.2116  16.2116  16.2350  16.5412  16.6523  16.6761  16.6761
    16.7725  16.9747  16.9747  17.2249  17.2249  17.3478  17.3478  17.4219
    17.4219  17.6518  17.6518  17.7413  17.7875  17.7875  17.8234  17.9618
    18.4708  18.6156  18.6669  18.6669  18.7408  18.7408  18.8119  18.8119
    18.9843  18.9843  19.1021  19.1021  19.1897  19.2284  19.2284  19.3818
    19.3818  19.4086  19.4086  19.4596  19.4596  19.5126  19.5397  19.5397
    19.5489  19.5816  19.5963  19.5963  19.6203  19.8127  19.8127  19.8423
    19.8473  19.8473  19.9179  19.9179  20.1190  20.1458  20.2648  20.2648
    20.3041  20.3284  20.3441  20.3441  20.5620  20.5620  20.8096  20.8096
    20.8735  20.8735  20.9395  20.9395  21.0836  21.0986  21.1065  21.1065
    21.1174  21.2155  21.2155  21.4265  21.8260  21.8314  21.8314  21.9573
    21.9573  21.9596  22.0727  22.0727  22.0995  22.1212  22.1843  22.1917
    22.2723  22.2723  22.3131  22.3131  22.3643  22.3859  22.3859  22.4029
    22.5200  22.5333  22.5348  22.5348  22.5468  22.5468  22.6987  22.6987
    22.8137  22.9295  22.9379  22.9379  22.9454  22.9789  23.0595  23.1399
    23.1566  23.1566  23.1646  23.2867  23.2867  23.4140  23.4256  23.4427
    23.6589  23.6589  23.8146  23.8244  23.8244  23.8326  23.8550  23.8550
    23.8811  23.9680  24.1931  24.1931  24.2022  24.2654  24.2654  24.5016
    24.6450  24.6450  24.6695  24.6695  24.6740  24.8859  24.8859  25.0560
    25.0560  25.1646  25.1963  25.1963  25.4257  25.4257  25.6852  25.7259
    25.7259  25.7742  25.7742  25.9689  25.9995  26.0170  26.0170  26.1221
    26.1545  26.2075  26.4546  26.4855  26.5074  26.5074  26.5573  26.5573
    26.6682  26.6682  26.6807  26.6807  26.6925  26.6925  26.7921  26.7921
    26.9827  27.0010  27.0010  27.0524  27.1985  27.2904  27.2969  27.5449
    27.5449  27.5734  27.9777  27.9777  28.0208  28.0612  28.0895  28.0930
    28.0930  28.1227  28.1227  28.1555  28.1603  28.1603  28.2346  28.2346
    28.3234  28.3544  28.3544  28.3890  28.5630  28.8110  28.8110  28.8417
    28.8417  29.0938  29.1250  29.1250  29.1301  29.1301  29.1784  29.2852
    29.4569  29.5316  29.5555  29.6536  29.6536  29.8215  29.8215  30.0328
    30.0328  30.1810  30.3078  30.3264  30.4365  30.5204  30.5351  30.5351
    30.5456  30.5456  30.5776  30.6418  30.7382  30.7620  30.8333  30.8333
    30.9114  30.9696  30.9696  31.0428  31.0428  31.1010  31.1010  31.1325
    31.1325  31.2731  31.2731  31.3473  31.3473  31.3827  31.3858  31.5163
    31.5632  31.5632  31.5788  31.7038  31.7080  31.7080  31.7083  31.9416
    31.9416  31.9537  32.1412  32.1412  32.1604  32.1604  32.2634  32.2634
    32.3330  32.3330  32.4623  32.5047  32.5322  32.5322  32.6148  32.8002
    32.8552  32.8552  32.9422  32.9422  32.9701  32.9701  33.0105  33.0228
    33.0228  33.0671  33.1405  33.2780  33.2780  33.3045  33.4034  33.4034
    33.4380  33.4945  33.5641  33.5843  33.5843  33.6263  33.6421  33.6421
    33.6849  33.7213  33.7213  33.7856  33.7856  33.7944  33.8122  33.8122
    33.9356  33.9356  34.0261  34.0261  34.0618  34.0618  34.1609  34.1876
    34.1876  34.1876  34.2322  34.2601  34.2601  34.4635

 ------ SPIN DOWN ----------


          k = 0.0000 0.0000 0.0000     band energies (ev):

   -59.8626 -59.8624 -59.8602 -59.8601 -59.8568 -59.8568 -59.8566 -59.8566
   -59.8544 -59.8544 -59.8544 -59.8544 -59.8502 -59.8502 -59.8501 -59.8501
   -59.8494 -59.8493 -59.8484 -59.8484 -59.8484 -59.8484 -59.8474 -59.8472
   -33.8409 -33.8383 -33.8331 -33.8325 -33.8325 -33.8298 -33.8296 -33.8296
   -33.8291 -33.8279 -33.8279 -33.8243 -33.8243 -33.8240 -33.8240 -33.8237
   -33.8207 -33.8192 -33.8192 -33.8182 -33.8182 -33.8153 -33.8135 -33.8135
   -33.8054 -33.8054 -33.8053 -33.8050 -33.8049 -33.8049 -33.7818 -33.7818
   -33.7815 -33.7815 -33.7650 -33.7650 -33.7647 -33.7647 -33.7579 -33.7579
   -33.7576 -33.7576 -33.7560 -33.7555 -33.7215 -33.7215 -33.7023 -33.7020
   -33.7009 -33.7009 -33.7008 -33.7008 -33.6996 -33.6994 -33.6961 -33.6961
   -33.6961 -33.6961 -33.6809 -33.6809 -33.6809 -33.6809 -33.6713 -33.6713
   -33.6693 -33.6693 -33.6693 -33.6693 -33.6621 -33.6620 -33.6596 -33.6595
   -13.4550 -13.3491 -13.3140 -13.2229 -12.8662 -12.8662 -12.7704 -12.7704
   -12.6989 -12.6989 -12.6289 -12.6289 -12.3288 -12.2304 -12.2304 -12.2245
   -12.2128 -12.1749 -12.1690 -12.1690 -12.1291 -12.1182 -12.0622 -12.0622
   -12.0549 -12.0549 -12.0503 -12.0503 -12.0384 -11.9984 -11.9977 -11.9977
   -11.9887 -11.9887 -11.9518 -11.9518 -11.7455 -11.7326 -11.7297 -11.6927
   -11.6901 -11.6901 -11.6660 -11.6660 -11.6581 -11.6581 -11.6456 -11.6456
   -11.6068 -11.6068 -11.5908 -11.5875 -11.5875 -11.5521 -11.5422 -11.5422
   -11.5297 -11.4989 -11.4989 -11.4832  -0.6097  -0.6097  -0.6081  -0.6081
    -0.5740  -0.5740  -0.5650  -0.5650  -0.2195  -0.1822  -0.1753  -0.1223
    -0.1138  -0.0744  -0.0629  -0.0511  -0.0441   0.0049   0.0132   0.0132
     0.0206   0.0206   0.0855   0.0855   0.0906   0.0906   0.1151   0.1714
     0.1714   0.2411   0.2411   0.2466   0.2466   0.4355   0.4534   0.4951
     0.4951   0.5188   0.5188   0.5203   0.5203   0.6260   0.6260   0.6713
     0.6809   0.6809   0.7113   0.7117   0.7123   0.7123   0.7168   0.7168
     1.0165   1.1230   1.1230   1.2024   1.2024   1.2438   1.2438   1.2449
     1.2449   1.2750   1.3609   1.4648   1.4648   1.4867   1.4867   1.5237
     1.5481   1.5481   1.5487   1.5531   1.5531   1.5572   1.5572   1.5996
     1.6046   1.6343   1.6343   1.7058   1.7058   1.9097   1.9097   1.9286
     1.9344   1.9344   1.9440   1.9996   2.0119   2.0119   2.0151   2.0319
     2.0319   2.0543   2.0543   2.0922   2.2000   2.2330   2.2443   2.2443
     2.2699   2.2699   2.3025   2.3025   2.3309   2.3715   2.3804   2.3804
     2.4395   2.4395   2.4429   2.4728   2.5419   2.5559   2.5559   2.5613
     2.5902   2.5902   2.6080   2.6255   2.6255   2.6352   2.6712   2.6784
     2.6784   2.7712   2.7949   2.7997   2.8905   2.9117   2.9117   3.0358
     3.0358   3.0527   3.0709   3.1355   3.1355   3.2425   3.2425   3.2440
     3.3029   3.3069   3.3069   3.3202   3.3538   3.3618   3.3631   3.3631
     3.3770   3.4043   3.4043   3.4598   3.4924   3.5322   3.5448   3.5448
     3.6115   3.6181   3.6383   3.6383   3.7150   3.8339   3.8339   3.9151
     3.9151   3.9163   3.9163   3.9298   4.0452   4.0750   4.0750   4.1186
     4.1186   4.1383   4.1383   4.1990   4.2479   4.2479   4.2717   4.2717
     6.4263   6.5015   6.5570   6.6499   6.7181   6.7181   6.7722   6.7722
     6.9408   6.9408   6.9467   6.9467   7.4072   7.4072   7.4276   7.4276
     7.4537   7.4537   7.5611   7.5612   7.5612   7.5899   7.5899   7.6947
     7.7163   7.7392   7.7538   7.7572   7.7572   7.7958   7.7958   7.7978
     7.7978   7.8181   7.8210   7.8419   7.9041   7.9041   7.9131   7.9361
     7.9361   7.9471   7.9486   7.9486   7.9754   7.9754   8.1118   8.1118
     8.1848   8.2129   8.2129   8.2169   8.2169   8.2771   8.2771   8.3000
     8.3000   8.3192   8.3671   8.3671   8.4389   8.4435   8.4440   8.4440
     8.4729   8.4729   8.5694   8.5694   8.7521   8.7941   8.8001   8.8263
     8.9486   8.9707   9.0523   9.0523   9.0887   9.0972   9.1326   9.1326
     9.1397   9.2576   9.2576   9.4015   9.4015   9.4016   9.4289   9.5216
     9.6336   9.7739   9.7739   9.8219   9.8510  10.0055  10.0055  10.0148
    10.0703  10.0703  10.0851  10.0851  10.2070  10.2070  10.2357  10.2691
    10.3048  10.3048  10.3644  10.5398  10.5398  10.6226  10.8240  10.8240
    10.9259  10.9259  10.9526  10.9526  11.0104  11.0104  11.1386  11.1828
    11.8086  13.0449  13.6731  13.6731  13.9354  13.9969  14.2914  14.2960
    14.2960  14.7785  14.7785  14.8003  14.8003  15.1986  15.5290  15.5290
    15.5365  16.2115  16.2115  16.2349  16.5411  16.6523  16.6760  16.6760
    16.7725  16.9747  16.9747  17.2249  17.2249  17.3478  17.3478  17.4218
    17.4218  17.6518  17.6518  17.7413  17.7874  17.7874  17.8234  17.9617
    18.4708  18.6156  18.6669  18.6669  18.7408  18.7408  18.8118  18.8118
    18.9842  18.9842  19.1020  19.1020  19.1897  19.2284  19.2284  19.3818
    19.3818  19.4086  19.4086  19.4596  19.4596  19.5125  19.5397  19.5397
    19.5489  19.5817  19.5962  19.5962  19.6203  19.8127  19.8127  19.8423
    19.8473  19.8473  19.9179  19.9179  20.1190  20.1458  20.2648  20.2648
    20.3040  20.3284  20.3440  20.3440  20.5619  20.5619  20.8095  20.8095
    20.8735  20.8735  20.9395  20.9395  21.0836  21.0986  21.1064  21.1064
    21.1174  21.2155  21.2155  21.4264  21.8260  21.8314  21.8314  21.9573
    21.9573  21.9596  22.0727  22.0727  22.0995  22.1212  22.1842  22.1917
    22.2723  22.2723  22.3130  22.3130  22.3643  22.3859  22.3859  22.4029
    22.5200  22.5334  22.5348  22.5348  22.5468  22.5468  22.6987  22.6987
    22.8137  22.9295  22.9379  22.9379  22.9454  22.9789  23.0595  23.1399
    23.1566  23.1566  23.1645  23.2867  23.2867  23.4140  23.4256  23.4427
    23.6589  23.6589  23.8146  23.8244  23.8244  23.8326  23.8550  23.8550
    23.8811  23.9679  24.1931  24.1931  24.2022  24.2654  24.2654  24.5016
    24.6450  24.6450  24.6695  24.6695  24.6740  24.8859  24.8859  25.0560
    25.0560  25.1646  25.1963  25.1963  25.4256  25.4256  25.6852  25.7259
    25.7259  25.7741  25.7741  25.9689  25.9994  26.0170  26.0170  26.1221
    26.1544  26.2075  26.4546  26.4855  26.5074  26.5074  26.5573  26.5573
    26.6682  26.6682  26.6807  26.6807  26.6925  26.6925  26.7921  26.7921
    26.9827  27.0010  27.0010  27.0523  27.1985  27.2903  27.2969  27.5448
    27.5448  27.5734  27.9776  27.9776  28.0208  28.0612  28.0895  28.0930
    28.0930  28.1227  28.1227  28.1555  28.1603  28.1603  28.2346  28.2346
    28.3233  28.3544  28.3544  28.3888  28.5630  28.8110  28.8110  28.8416
    28.8416  29.0938  29.1250  29.1250  29.1301  29.1301  29.1784  29.2852
    29.4569  29.5315  29.5555  29.6536  29.6536  29.8214  29.8214  30.0328
    30.0328  30.1810  30.3077  30.3264  30.4365  30.5204  30.5350  30.5350
    30.5456  30.5456  30.5775  30.6418  30.7382  30.7619  30.8332  30.8332
    30.9114  30.9696  30.9696  31.0428  31.0428  31.1010  31.1010  31.1325
    31.1325  31.2731  31.2731  31.3473  31.3473  31.3827  31.3858  31.5162
    31.5632  31.5632  31.5788  31.7037  31.7079  31.7079  31.7083  31.9416
    31.9416  31.9537  32.1412  32.1412  32.1604  32.1604  32.2634  32.2634
    32.3330  32.3330  32.4623  32.5047  32.5322  32.5322  32.6148  32.8002
    32.8552  32.8552  32.9422  32.9422  32.9701  32.9701  33.0105  33.0228
    33.0228  33.0671  33.1404  33.2780  33.2780  33.3045  33.4034  33.4034
    33.4380  33.4945  33.5641  33.5843  33.5843  33.6263  33.6420  33.6420
    33.6848  33.7212  33.7212  33.7856  33.7856  33.7944  33.8122  33.8122
    33.9356  33.9356  34.0261  34.0261  34.0617  34.0617  34.1609  34.1875
    34.1875  34.1875  34.2322  34.2601  34.2601  34.4635

     the Fermi energy is     5.0060 ev

     Writing output data file v2o5.save
 
     init_run     :      3.01s CPU      3.67s WALL (       1 calls)
     electrons    :    352.97s CPU    354.33s WALL (       1 calls)

     Called by init_run:
     wfcinit      :      0.29s CPU      0.36s WALL (       1 calls)
     potinit      :      0.24s CPU      0.28s WALL (       1 calls)

     Called by electrons:
     c_bands      :    352.95s CPU    354.31s WALL (       1 calls)
     v_of_rho     :      0.09s CPU      0.10s WALL (       1 calls)
     newd         :      1.06s CPU      1.06s WALL (       1 calls)

     Called by c_bands:
     init_us_2    :      0.00s CPU      0.01s WALL (       4 calls)
     cegterg      :    347.73s CPU    349.01s WALL (       4 calls)

     Called by *egterg:
     h_psi        :     47.59s CPU     47.77s WALL (      80 calls)
     s_psi        :      2.13s CPU      2.14s WALL (      82 calls)
     g_psi        :      0.05s CPU      0.05s WALL (      74 calls)
     cdiaghg      :    259.71s CPU    260.74s WALL (      76 calls)

     Called by h_psi:
     add_vuspsi   :      2.01s CPU      2.01s WALL (      80 calls)

     General routines
     calbec       :      4.70s CPU      4.73s WALL (     162 calls)
     fft          :      0.09s CPU      0.09s WALL (      23 calls)
     ffts         :      0.01s CPU      0.01s WALL (       2 calls)
     fftw         :     39.72s CPU     39.87s WALL (   43022 calls)
     interpolate  :      0.01s CPU      0.01s WALL (       2 calls)
     davcio       :      0.00s CPU      0.07s WALL (      10 calls)
 
     Parallel routines
     fft_scatter  :     33.41s CPU     33.53s WALL (   43047 calls)
 
     PWSCF        :  6m 0.60s CPU     6m 3.49s WALL

 
   This run was terminated on:  14:20:12   6Sep2018            

=------------------------------------------------------------------------------=
   JOB DONE.
=------------------------------------------------------------------------------=
