
     Program PWSCF v.4.3        starts on  6Sep2018 at 13:38:43 

     This program is part of the open-source Quantum ESPRESSO suite
     for quantum simulation of materials; please cite
         "P. Giannozzi et al., J. Phys.:Condens. Matter 21 395502 (2009);
          URL http://www.quantum-espresso.org", 
     in publications or presentations arising from this work. More details at
     http://www.quantum-espresso.org/wiki/index.php/Citing_Quantum-ESPRESSO

     Parallel version (MPI), running on    64 processors
     R & G space division:  proc/pool =   64

     Current dimensions of program PWSCF are:
     Max number of different atomic species (ntypx) = **
     Max number of k-points (npk) =  40000
     Max angular momentum in pseudopotentials (lmaxx) =  3
     Waiting for input...

     Subspace diagonalization in iterative solution of the eigenvalue problem:
     parallel, distributed-memory algorithm (size of sub-group:  5*  5 procs)

     Found symmetry operation: I + (  0.0000  0.0000  0.5000)
     This is a supercell, fractional translation are disabled
 
   Stick Mesh
   ----------
   nst = 10457,  nstw =  1155, nsts =  4177
               n.st   n.stw   n.sts    n.g    n.gw   n.gs
   min         163      18      65    9923     362    2501
   max         164      19      66    9926     366    2528
      10457    1155    4177  635163   23329  160693
 


     bravais-lattice index     =           14
     lattice parameter (a_0)   =      21.7375  a.u.
     unit-cell volume          =    7238.1051 (a.u.)^3
     number of atoms/cell      =           84
     number of atomic types    =            2
     number of electrons       =       672.00
     number of Kohn-Sham states=          403
     kinetic-energy cutoff     =      30.0000  Ry
     charge density cutoff     =     300.0000  Ry
     convergence threshold     =      1.0E-08
     mixing beta               =       0.3000
     number of iterations used =            8  local-TF  mixing
     Exchange-correlation      = SLA  PW   PBE  PBE (1434)
     EXX-fraction              =        0.00

     celldm(1)=  21.737520  celldm(2)=   0.927671  celldm(3)=   0.759628
     celldm(4)=   0.000000  celldm(5)=   0.000000  celldm(6)=   0.000000

     crystal axes: (cart. coord. in units of a_0)
               a(1) = (   1.000000   0.000000   0.000000 )  
               a(2) = (   0.000000   0.927671   0.000000 )  
               a(3) = (   0.000000   0.000000   0.759628 )  

     reciprocal axes: (cart. coord. in units 2 pi/a_0)
               b(1) = (  1.000000  0.000000  0.000000 )  
               b(2) = (  0.000000  1.077968  0.000000 )  
               b(3) = (  0.000000  0.000000  1.316434 )  


     PseudoPot. # 1 for O  read from file O.pbe-van_bm.UPF
     MD5 check sum: ca2828d9fb1f294809e918903b7648d1
     Pseudo is Ultrasoft, Zval =  6.0
     Generated by new atomic code, or converted to UPF format
     Using radial grid of  737 points,  4 beta functions with: 
                l(1) =   0
                l(2) =   0
                l(3) =   1
                l(4) =   1
     Q(r) pseudized with  8 coefficients,  rinner =    0.800   0.800   0.800


     PseudoPot. # 2 for V  read from file V.pbe-van-yufengl.UPF
     MD5 check sum: 105a573f738f0b837c178d5a4207921b
     Pseudo is Ultrasoft + core correction, Zval = 13.0
     Generated by new atomic code, or converted to UPF format
     Using radial grid of  853 points,  6 beta functions with: 
                l(1) =   0
                l(2) =   0
                l(3) =   1
                l(4) =   1
                l(5) =   2
                l(6) =   2
     Q(r) pseudized with  6 coefficients,  rinner =    1.000   1.000   1.000
                                                       1.000   1.000

     atomic species   valence    mass     pseudopotential
        O              6.00    15.99900     O ( 1.00)
        V             13.00    50.94000     V ( 1.00)

     Starting magnetic structure 
     atomic species   magnetization
        O            0.000
        V            0.010

     LDA+U calculation, Hubbard_lmax = 2
     atomic species  L   Hubbard U  Hubbard alpha
        V            2    0.227846    0.000000

      4 Sym.Ops. (no inversion)


   Cartesian axes

     site n.     atom                  positions (a_0 units)
         1           V   tau(  1) = (   0.1483269   0.0000000   0.3388149  )
         2           V   tau(  2) = (   0.1483269   0.0000000   0.7186289  )
         3           V   tau(  3) = (   0.1483269   0.3092237   0.3388149  )
         4           V   tau(  4) = (   0.1483269   0.3092237   0.7186289  )
         5           V   tau(  5) = (   0.1483269   0.6184474   0.3388149  )
         6           V   tau(  6) = (   0.1483269   0.6184474   0.7186289  )
         7           V   tau(  7) = (   0.3516731   0.1546118   0.0409986  )
         8           V   tau(  8) = (   0.3516731   0.1546118   0.4208125  )
         9           V   tau(  9) = (   0.3516731   0.4638355   0.0409986  )
        10           V   tau( 10) = (   0.3516731   0.4638355   0.4208125  )
        11           V   tau( 11) = (   0.3516731   0.7730592   0.0409986  )
        12           V   tau( 12) = (   0.3516731   0.7730592   0.4208125  )
        13           V   tau( 13) = (   0.6483270   0.1546118   0.0409980  )
        14           V   tau( 14) = (   0.6483270   0.1546118   0.4208119  )
        15           V   tau( 15) = (   0.6483270   0.4638355   0.0409980  )
        16           V   tau( 16) = (   0.6483270   0.4638355   0.4208119  )
        17           V   tau( 17) = (   0.6483270   0.7730592   0.0409980  )
        18           V   tau( 18) = (   0.6483270   0.7730592   0.4208119  )
        19           V   tau( 19) = (   0.8516731   0.0000000   0.3388154  )
        20           V   tau( 20) = (   0.8516731   0.0000000   0.7186293  )
        21           V   tau( 21) = (   0.8516731   0.3092237   0.3388154  )
        22           V   tau( 22) = (   0.8516731   0.3092237   0.7186293  )
        23           V   tau( 23) = (   0.8516731   0.6184474   0.3388154  )
        24           V   tau( 24) = (   0.8516731   0.6184474   0.7186293  )
        25           O   tau( 25) = (   0.1813361   0.1546118   0.3796345  )
        26           O   tau( 26) = (   0.1813361   0.1546118   0.7594484  )
        27           O   tau( 27) = (   0.1813361   0.4638355   0.3796345  )
        28           O   tau( 28) = (   0.1813361   0.4638355   0.7594484  )
        29           O   tau( 29) = (   0.1813361   0.7730592   0.3796345  )
        30           O   tau( 30) = (   0.1813361   0.7730592   0.7594484  )
        31           O   tau( 31) = (   0.3186639   0.0000000   0.0001795  )
        32           O   tau( 32) = (   0.3186639   0.0000000   0.3799935  )
        33           O   tau( 33) = (   0.3186639   0.3092237   0.0001795  )
        34           O   tau( 34) = (   0.3186639   0.3092237   0.3799935  )
        35           O   tau( 35) = (   0.3186639   0.6184474   0.0001795  )
        36           O   tau( 36) = (   0.3186639   0.6184474   0.3799935  )
        37           O   tau( 37) = (   0.6813362   0.0000000   0.0001795  )
        38           O   tau( 38) = (   0.6813362   0.0000000   0.3799935  )
        39           O   tau( 39) = (   0.6813362   0.3092237   0.0001795  )
        40           O   tau( 40) = (   0.6813362   0.3092237   0.3799935  )
        41           O   tau( 41) = (   0.6813362   0.6184474   0.0001795  )
        42           O   tau( 42) = (   0.6813362   0.6184474   0.3799935  )
        43           O   tau( 43) = (   0.8186639   0.1546118   0.3796345  )
        44           O   tau( 44) = (   0.8186639   0.1546118   0.7594485  )
        45           O   tau( 45) = (   0.8186639   0.4638355   0.3796345  )
        46           O   tau( 46) = (   0.8186639   0.4638355   0.7594485  )
        47           O   tau( 47) = (   0.8186639   0.7730592   0.3796345  )
        48           O   tau( 48) = (   0.8186639   0.7730592   0.7594485  )
        49           O   tau( 49) = (   0.8552736   0.0000000   0.2004983  )
        50           O   tau( 50) = (   0.8552736   0.0000000   0.5803123  )
        51           O   tau( 51) = (   0.8552736   0.3092237   0.2004983  )
        52           O   tau( 52) = (   0.8552736   0.3092237   0.5803123  )
        53           O   tau( 53) = (   0.8552736   0.6184474   0.2004983  )
        54           O   tau( 54) = (   0.8552736   0.6184474   0.5803123  )
        55           O   tau( 55) = (   0.6447264   0.1546118   0.1793162  )
        56           O   tau( 56) = (   0.6447264   0.1546118   0.5591301  )
        57           O   tau( 57) = (   0.6447264   0.4638355   0.1793162  )
        58           O   tau( 58) = (   0.6447264   0.4638355   0.5591301  )
        59           O   tau( 59) = (   0.6447264   0.7730592   0.1793162  )
        60           O   tau( 60) = (   0.6447264   0.7730592   0.5591301  )
        61           O   tau( 61) = (   0.3552736   0.1546118   0.1793157  )
        62           O   tau( 62) = (   0.3552736   0.1546118   0.5591297  )
        63           O   tau( 63) = (   0.3552736   0.4638355   0.1793157  )
        64           O   tau( 64) = (   0.3552736   0.4638355   0.5591297  )
        65           O   tau( 65) = (   0.3552736   0.7730592   0.1793157  )
        66           O   tau( 66) = (   0.3552736   0.7730592   0.5591297  )
        67           O   tau( 67) = (   0.5000000   0.1546118   0.3788864  )
        68           O   tau( 68) = (   0.5000000   0.1546118   0.7587004  )
        69           O   tau( 69) = (   0.5000000   0.4638355   0.3788864  )
        70           O   tau( 70) = (   0.5000000   0.4638355   0.7587004  )
        71           O   tau( 71) = (   0.5000000   0.7730592   0.3788864  )
        72           O   tau( 72) = (   0.5000000   0.7730592   0.7587004  )
        73           O   tau( 73) = (  -0.0000000   0.0000000   0.0009276  )
        74           O   tau( 74) = (  -0.0000000   0.0000000   0.3807415  )
        75           O   tau( 75) = (  -0.0000000   0.3092237   0.0009276  )
        76           O   tau( 76) = (  -0.0000000   0.3092237   0.3807415  )
        77           O   tau( 77) = (  -0.0000000   0.6184474   0.0009276  )
        78           O   tau( 78) = (  -0.0000000   0.6184474   0.3807415  )
        79           O   tau( 79) = (   0.1447264   0.0000000   0.2004987  )
        80           O   tau( 80) = (   0.1447264   0.0000000   0.5803126  )
        81           O   tau( 81) = (   0.1447264   0.3092237   0.2004987  )
        82           O   tau( 82) = (   0.1447264   0.3092237   0.5803126  )
        83           O   tau( 83) = (   0.1447264   0.6184474   0.2004987  )
        84           O   tau( 84) = (   0.1447264   0.6184474   0.5803126  )

     number of k points=    16  Fermi-Dirac smearing, width (Ry)=  0.0019
                       cart. coord. in units 2pi/a_0
        k(    1) = (   0.0000000   0.0000000   0.0000000), wk =   0.1250000
        k(    2) = (   0.0000000   0.0000000  -0.6582170), wk =   0.1250000
        k(    3) = (   0.0000000  -0.5389842   0.0000000), wk =   0.1250000
        k(    4) = (   0.0000000  -0.5389842  -0.6582170), wk =   0.1250000
        k(    5) = (  -0.5000000   0.0000000   0.0000000), wk =   0.1250000
        k(    6) = (  -0.5000000   0.0000000  -0.6582170), wk =   0.1250000
        k(    7) = (  -0.5000000  -0.5389842   0.0000000), wk =   0.1250000
        k(    8) = (  -0.5000000  -0.5389842  -0.6582170), wk =   0.1250000
        k(    9) = (   0.0000000   0.0000000   0.0000000), wk =   0.1250000
        k(   10) = (   0.0000000   0.0000000  -0.6582170), wk =   0.1250000
        k(   11) = (   0.0000000  -0.5389842   0.0000000), wk =   0.1250000
        k(   12) = (   0.0000000  -0.5389842  -0.6582170), wk =   0.1250000
        k(   13) = (  -0.5000000   0.0000000   0.0000000), wk =   0.1250000
        k(   14) = (  -0.5000000   0.0000000  -0.6582170), wk =   0.1250000
        k(   15) = (  -0.5000000  -0.5389842   0.0000000), wk =   0.1250000
        k(   16) = (  -0.5000000  -0.5389842  -0.6582170), wk =   0.1250000

     G cutoff = 3590.7196  ( 635163 G-vectors)     FFT grid: (120,120, 96)
     G cutoff = 1436.2879  ( 160693 G-vectors)  smooth grid: ( 75, 72, 60)

     Largest allocated arrays     est. size (Mb)     dimensions
        Kohn-Sham Wavefunctions         1.97 Mb     (    321, 403)
        Atomic wavefunctions            2.35 Mb     (    321, 480)
        NL pseudopotentials             4.47 Mb     (    321, 912)
        Each V/rho on FFT grid          0.88 Mb     (  28800,   2)
        Each G-vector array             0.08 Mb     (   9926)
        G-vector shells                 0.04 Mb     (   4974)
     Largest temporary arrays     est. size (Mb)     dimensions
        Auxiliary wavefunctions         7.90 Mb     (    321,1612)
        Each subspace H/S matrix       39.65 Mb     (   1612,1612)
        Each <psi_i|beta_j> matrix      5.61 Mb     (    912, 403)
        Arrays for rho mixing           3.52 Mb     (  28800,   8)

     Check: negative/imaginary core charge=   -0.000004    0.000000

     Initial potential from superposition of free atoms
     Check: negative starting charge=(component1):   -0.005912
     Check: negative starting charge=(component2):   -0.005790

     starting charge  671.97045, renormalised to  672.00000

     negative rho (up, down):  0.591E-02 0.579E-02

     Parameters of the lda+U calculation:
     Number of iteration with fixed ns =  0
     Starting ns and Hubbard U :
 enter write_ns
U( 1) =  0.0000      U( 2) =  3.1000
alpha( 1) =  0.0000      alpha( 2) =  0.0000
atom    1   Tr[ns(na)]=   3.0000000
atom    1   spin  1
eigenvalues:  0.6000000 0.6000000 0.6000000 0.6000000 0.6000000
 eigenvectors
 1   1.0000000  0.0000000  0.0000000  0.0000000  0.0000000
 2   0.0000000  1.0000000  0.0000000  0.0000000  0.0000000
 3   0.0000000  0.0000000  1.0000000  0.0000000  0.0000000
 4   0.0000000  0.0000000  0.0000000  1.0000000  0.0000000
 5   0.0000000  0.0000000  0.0000000  0.0000000  1.0000000
 occupations
 0.600  0.000  0.000  0.000  0.000
 0.000  0.600  0.000  0.000  0.000
 0.000  0.000  0.600  0.000  0.000
 0.000  0.000  0.000  0.600  0.000
 0.000  0.000  0.000  0.000  0.600
atom    1   spin  2
eigenvalues:  0.0000000 0.0000000 0.0000000 0.0000000 0.0000000
 eigenvectors
 1   1.0000000  0.0000000  0.0000000  0.0000000  0.0000000
 2   0.0000000  1.0000000  0.0000000  0.0000000  0.0000000
 3   0.0000000  0.0000000  1.0000000  0.0000000  0.0000000
 4   0.0000000  0.0000000  0.0000000  1.0000000  0.0000000
 5   0.0000000  0.0000000  0.0000000  0.0000000  1.0000000
 occupations
 0.000  0.000  0.000  0.000  0.000
 0.000  0.000  0.000  0.000  0.000
 0.000  0.000  0.000  0.000  0.000
 0.000  0.000  0.000  0.000  0.000
 0.000  0.000  0.000  0.000  0.000
atom    2   Tr[ns(na)]=   3.0000000
atom    2   spin  1
eigenvalues:  0.6000000 0.6000000 0.6000000 0.6000000 0.6000000
 eigenvectors
 1   1.0000000  0.0000000  0.0000000  0.0000000  0.0000000
 2   0.0000000  1.0000000  0.0000000  0.0000000  0.0000000
 3   0.0000000  0.0000000  1.0000000  0.0000000  0.0000000
 4   0.0000000  0.0000000  0.0000000  1.0000000  0.0000000
 5   0.0000000  0.0000000  0.0000000  0.0000000  1.0000000
 occupations
 0.600  0.000  0.000  0.000  0.000
 0.000  0.600  0.000  0.000  0.000
 0.000  0.000  0.600  0.000  0.000
 0.000  0.000  0.000  0.600  0.000
 0.000  0.000  0.000  0.000  0.600
atom    2   spin  2
eigenvalues:  0.0000000 0.0000000 0.0000000 0.0000000 0.0000000
 eigenvectors
 1   1.0000000  0.0000000  0.0000000  0.0000000  0.0000000
 2   0.0000000  1.0000000  0.0000000  0.0000000  0.0000000
 3   0.0000000  0.0000000  1.0000000  0.0000000  0.0000000
 4   0.0000000  0.0000000  0.0000000  1.0000000  0.0000000
 5   0.0000000  0.0000000  0.0000000  0.0000000  1.0000000
 occupations
 0.000  0.000  0.000  0.000  0.000
 0.000  0.000  0.000  0.000  0.000
 0.000  0.000  0.000  0.000  0.000
 0.000  0.000  0.000  0.000  0.000
 0.000  0.000  0.000  0.000  0.000
atom    3   Tr[ns(na)]=   3.0000000
atom    3   spin  1
eigenvalues:  0.6000000 0.6000000 0.6000000 0.6000000 0.6000000
 eigenvectors
 1   1.0000000  0.0000000  0.0000000  0.0000000  0.0000000
 2   0.0000000  1.0000000  0.0000000  0.0000000  0.0000000
 3   0.0000000  0.0000000  1.0000000  0.0000000  0.0000000
 4   0.0000000  0.0000000  0.0000000  1.0000000  0.0000000
 5   0.0000000  0.0000000  0.0000000  0.0000000  1.0000000
 occupations
 0.600  0.000  0.000  0.000  0.000
 0.000  0.600  0.000  0.000  0.000
 0.000  0.000  0.600  0.000  0.000
 0.000  0.000  0.000  0.600  0.000
 0.000  0.000  0.000  0.000  0.600
atom    3   spin  2
eigenvalues:  0.0000000 0.0000000 0.0000000 0.0000000 0.0000000
 eigenvectors
 1   1.0000000  0.0000000  0.0000000  0.0000000  0.0000000
 2   0.0000000  1.0000000  0.0000000  0.0000000  0.0000000
 3   0.0000000  0.0000000  1.0000000  0.0000000  0.0000000
 4   0.0000000  0.0000000  0.0000000  1.0000000  0.0000000
 5   0.0000000  0.0000000  0.0000000  0.0000000  1.0000000
 occupations
 0.000  0.000  0.000  0.000  0.000
 0.000  0.000  0.000  0.000  0.000
 0.000  0.000  0.000  0.000  0.000
 0.000  0.000  0.000  0.000  0.000
 0.000  0.000  0.000  0.000  0.000
atom    4   Tr[ns(na)]=   3.0000000
atom    4   spin  1
eigenvalues:  0.6000000 0.6000000 0.6000000 0.6000000 0.6000000
 eigenvectors
 1   1.0000000  0.0000000  0.0000000  0.0000000  0.0000000
 2   0.0000000  1.0000000  0.0000000  0.0000000  0.0000000
 3   0.0000000  0.0000000  1.0000000  0.0000000  0.0000000
 4   0.0000000  0.0000000  0.0000000  1.0000000  0.0000000
 5   0.0000000  0.0000000  0.0000000  0.0000000  1.0000000
 occupations
 0.600  0.000  0.000  0.000  0.000
 0.000  0.600  0.000  0.000  0.000
 0.000  0.000  0.600  0.000  0.000
 0.000  0.000  0.000  0.600  0.000
 0.000  0.000  0.000  0.000  0.600
atom    4   spin  2
eigenvalues:  0.0000000 0.0000000 0.0000000 0.0000000 0.0000000
 eigenvectors
 1   1.0000000  0.0000000  0.0000000  0.0000000  0.0000000
 2   0.0000000  1.0000000  0.0000000  0.0000000  0.0000000
 3   0.0000000  0.0000000  1.0000000  0.0000000  0.0000000
 4   0.0000000  0.0000000  0.0000000  1.0000000  0.0000000
 5   0.0000000  0.0000000  0.0000000  0.0000000  1.0000000
 occupations
 0.000  0.000  0.000  0.000  0.000
 0.000  0.000  0.000  0.000  0.000
 0.000  0.000  0.000  0.000  0.000
 0.000  0.000  0.000  0.000  0.000
 0.000  0.000  0.000  0.000  0.000
atom    5   Tr[ns(na)]=   3.0000000
atom    5   spin  1
eigenvalues:  0.6000000 0.6000000 0.6000000 0.6000000 0.6000000
 eigenvectors
 1   1.0000000  0.0000000  0.0000000  0.0000000  0.0000000
 2   0.0000000  1.0000000  0.0000000  0.0000000  0.0000000
 3   0.0000000  0.0000000  1.0000000  0.0000000  0.0000000
 4   0.0000000  0.0000000  0.0000000  1.0000000  0.0000000
 5   0.0000000  0.0000000  0.0000000  0.0000000  1.0000000
 occupations
 0.600  0.000  0.000  0.000  0.000
 0.000  0.600  0.000  0.000  0.000
 0.000  0.000  0.600  0.000  0.000
 0.000  0.000  0.000  0.600  0.000
 0.000  0.000  0.000  0.000  0.600
atom    5   spin  2
eigenvalues:  0.0000000 0.0000000 0.0000000 0.0000000 0.0000000
 eigenvectors
 1   1.0000000  0.0000000  0.0000000  0.0000000  0.0000000
 2   0.0000000  1.0000000  0.0000000  0.0000000  0.0000000
 3   0.0000000  0.0000000  1.0000000  0.0000000  0.0000000
 4   0.0000000  0.0000000  0.0000000  1.0000000  0.0000000
 5   0.0000000  0.0000000  0.0000000  0.0000000  1.0000000
 occupations
 0.000  0.000  0.000  0.000  0.000
 0.000  0.000  0.000  0.000  0.000
 0.000  0.000  0.000  0.000  0.000
 0.000  0.000  0.000  0.000  0.000
 0.000  0.000  0.000  0.000  0.000
atom    6   Tr[ns(na)]=   3.0000000
atom    6   spin  1
eigenvalues:  0.6000000 0.6000000 0.6000000 0.6000000 0.6000000
 eigenvectors
 1   1.0000000  0.0000000  0.0000000  0.0000000  0.0000000
 2   0.0000000  1.0000000  0.0000000  0.0000000  0.0000000
 3   0.0000000  0.0000000  1.0000000  0.0000000  0.0000000
 4   0.0000000  0.0000000  0.0000000  1.0000000  0.0000000
 5   0.0000000  0.0000000  0.0000000  0.0000000  1.0000000
 occupations
 0.600  0.000  0.000  0.000  0.000
 0.000  0.600  0.000  0.000  0.000
 0.000  0.000  0.600  0.000  0.000
 0.000  0.000  0.000  0.600  0.000
 0.000  0.000  0.000  0.000  0.600
atom    6   spin  2
eigenvalues:  0.0000000 0.0000000 0.0000000 0.0000000 0.0000000
 eigenvectors
 1   1.0000000  0.0000000  0.0000000  0.0000000  0.0000000
 2   0.0000000  1.0000000  0.0000000  0.0000000  0.0000000
 3   0.0000000  0.0000000  1.0000000  0.0000000  0.0000000
 4   0.0000000  0.0000000  0.0000000  1.0000000  0.0000000
 5   0.0000000  0.0000000  0.0000000  0.0000000  1.0000000
 occupations
 0.000  0.000  0.000  0.000  0.000
 0.000  0.000  0.000  0.000  0.000
 0.000  0.000  0.000  0.000  0.000
 0.000  0.000  0.000  0.000  0.000
 0.000  0.000  0.000  0.000  0.000
atom    7   Tr[ns(na)]=   3.0000000
atom    7   spin  1
eigenvalues:  0.6000000 0.6000000 0.6000000 0.6000000 0.6000000
 eigenvectors
 1   1.0000000  0.0000000  0.0000000  0.0000000  0.0000000
 2   0.0000000  1.0000000  0.0000000  0.0000000  0.0000000
 3   0.0000000  0.0000000  1.0000000  0.0000000  0.0000000
 4   0.0000000  0.0000000  0.0000000  1.0000000  0.0000000
 5   0.0000000  0.0000000  0.0000000  0.0000000  1.0000000
 occupations
 0.600  0.000  0.000  0.000  0.000
 0.000  0.600  0.000  0.000  0.000
 0.000  0.000  0.600  0.000  0.000
 0.000  0.000  0.000  0.600  0.000
 0.000  0.000  0.000  0.000  0.600
atom    7   spin  2
eigenvalues:  0.0000000 0.0000000 0.0000000 0.0000000 0.0000000
 eigenvectors
 1   1.0000000  0.0000000  0.0000000  0.0000000  0.0000000
 2   0.0000000  1.0000000  0.0000000  0.0000000  0.0000000
 3   0.0000000  0.0000000  1.0000000  0.0000000  0.0000000
 4   0.0000000  0.0000000  0.0000000  1.0000000  0.0000000
 5   0.0000000  0.0000000  0.0000000  0.0000000  1.0000000
 occupations
 0.000  0.000  0.000  0.000  0.000
 0.000  0.000  0.000  0.000  0.000
 0.000  0.000  0.000  0.000  0.000
 0.000  0.000  0.000  0.000  0.000
 0.000  0.000  0.000  0.000  0.000
atom    8   Tr[ns(na)]=   3.0000000
atom    8   spin  1
eigenvalues:  0.6000000 0.6000000 0.6000000 0.6000000 0.6000000
 eigenvectors
 1   1.0000000  0.0000000  0.0000000  0.0000000  0.0000000
 2   0.0000000  1.0000000  0.0000000  0.0000000  0.0000000
 3   0.0000000  0.0000000  1.0000000  0.0000000  0.0000000
 4   0.0000000  0.0000000  0.0000000  1.0000000  0.0000000
 5   0.0000000  0.0000000  0.0000000  0.0000000  1.0000000
 occupations
 0.600  0.000  0.000  0.000  0.000
 0.000  0.600  0.000  0.000  0.000
 0.000  0.000  0.600  0.000  0.000
 0.000  0.000  0.000  0.600  0.000
 0.000  0.000  0.000  0.000  0.600
atom    8   spin  2
eigenvalues:  0.0000000 0.0000000 0.0000000 0.0000000 0.0000000
 eigenvectors
 1   1.0000000  0.0000000  0.0000000  0.0000000  0.0000000
 2   0.0000000  1.0000000  0.0000000  0.0000000  0.0000000
 3   0.0000000  0.0000000  1.0000000  0.0000000  0.0000000
 4   0.0000000  0.0000000  0.0000000  1.0000000  0.0000000
 5   0.0000000  0.0000000  0.0000000  0.0000000  1.0000000
 occupations
 0.000  0.000  0.000  0.000  0.000
 0.000  0.000  0.000  0.000  0.000
 0.000  0.000  0.000  0.000  0.000
 0.000  0.000  0.000  0.000  0.000
 0.000  0.000  0.000  0.000  0.000
atom    9   Tr[ns(na)]=   3.0000000
atom    9   spin  1
eigenvalues:  0.6000000 0.6000000 0.6000000 0.6000000 0.6000000
 eigenvectors
 1   1.0000000  0.0000000  0.0000000  0.0000000  0.0000000
 2   0.0000000  1.0000000  0.0000000  0.0000000  0.0000000
 3   0.0000000  0.0000000  1.0000000  0.0000000  0.0000000
 4   0.0000000  0.0000000  0.0000000  1.0000000  0.0000000
 5   0.0000000  0.0000000  0.0000000  0.0000000  1.0000000
 occupations
 0.600  0.000  0.000  0.000  0.000
 0.000  0.600  0.000  0.000  0.000
 0.000  0.000  0.600  0.000  0.000
 0.000  0.000  0.000  0.600  0.000
 0.000  0.000  0.000  0.000  0.600
atom    9   spin  2
eigenvalues:  0.0000000 0.0000000 0.0000000 0.0000000 0.0000000
 eigenvectors
 1   1.0000000  0.0000000  0.0000000  0.0000000  0.0000000
 2   0.0000000  1.0000000  0.0000000  0.0000000  0.0000000
 3   0.0000000  0.0000000  1.0000000  0.0000000  0.0000000
 4   0.0000000  0.0000000  0.0000000  1.0000000  0.0000000
 5   0.0000000  0.0000000  0.0000000  0.0000000  1.0000000
 occupations
 0.000  0.000  0.000  0.000  0.000
 0.000  0.000  0.000  0.000  0.000
 0.000  0.000  0.000  0.000  0.000
 0.000  0.000  0.000  0.000  0.000
 0.000  0.000  0.000  0.000  0.000
atom   10   Tr[ns(na)]=   3.0000000
atom   10   spin  1
eigenvalues:  0.6000000 0.6000000 0.6000000 0.6000000 0.6000000
 eigenvectors
 1   1.0000000  0.0000000  0.0000000  0.0000000  0.0000000
 2   0.0000000  1.0000000  0.0000000  0.0000000  0.0000000
 3   0.0000000  0.0000000  1.0000000  0.0000000  0.0000000
 4   0.0000000  0.0000000  0.0000000  1.0000000  0.0000000
 5   0.0000000  0.0000000  0.0000000  0.0000000  1.0000000
 occupations
 0.600  0.000  0.000  0.000  0.000
 0.000  0.600  0.000  0.000  0.000
 0.000  0.000  0.600  0.000  0.000
 0.000  0.000  0.000  0.600  0.000
 0.000  0.000  0.000  0.000  0.600
atom   10   spin  2
eigenvalues:  0.0000000 0.0000000 0.0000000 0.0000000 0.0000000
 eigenvectors
 1   1.0000000  0.0000000  0.0000000  0.0000000  0.0000000
 2   0.0000000  1.0000000  0.0000000  0.0000000  0.0000000
 3   0.0000000  0.0000000  1.0000000  0.0000000  0.0000000
 4   0.0000000  0.0000000  0.0000000  1.0000000  0.0000000
 5   0.0000000  0.0000000  0.0000000  0.0000000  1.0000000
 occupations
 0.000  0.000  0.000  0.000  0.000
 0.000  0.000  0.000  0.000  0.000
 0.000  0.000  0.000  0.000  0.000
 0.000  0.000  0.000  0.000  0.000
 0.000  0.000  0.000  0.000  0.000
atom   11   Tr[ns(na)]=   3.0000000
atom   11   spin  1
eigenvalues:  0.6000000 0.6000000 0.6000000 0.6000000 0.6000000
 eigenvectors
 1   1.0000000  0.0000000  0.0000000  0.0000000  0.0000000
 2   0.0000000  1.0000000  0.0000000  0.0000000  0.0000000
 3   0.0000000  0.0000000  1.0000000  0.0000000  0.0000000
 4   0.0000000  0.0000000  0.0000000  1.0000000  0.0000000
 5   0.0000000  0.0000000  0.0000000  0.0000000  1.0000000
 occupations
 0.600  0.000  0.000  0.000  0.000
 0.000  0.600  0.000  0.000  0.000
 0.000  0.000  0.600  0.000  0.000
 0.000  0.000  0.000  0.600  0.000
 0.000  0.000  0.000  0.000  0.600
atom   11   spin  2
eigenvalues:  0.0000000 0.0000000 0.0000000 0.0000000 0.0000000
 eigenvectors
 1   1.0000000  0.0000000  0.0000000  0.0000000  0.0000000
 2   0.0000000  1.0000000  0.0000000  0.0000000  0.0000000
 3   0.0000000  0.0000000  1.0000000  0.0000000  0.0000000
 4   0.0000000  0.0000000  0.0000000  1.0000000  0.0000000
 5   0.0000000  0.0000000  0.0000000  0.0000000  1.0000000
 occupations
 0.000  0.000  0.000  0.000  0.000
 0.000  0.000  0.000  0.000  0.000
 0.000  0.000  0.000  0.000  0.000
 0.000  0.000  0.000  0.000  0.000
 0.000  0.000  0.000  0.000  0.000
atom   12   Tr[ns(na)]=   3.0000000
atom   12   spin  1
eigenvalues:  0.6000000 0.6000000 0.6000000 0.6000000 0.6000000
 eigenvectors
 1   1.0000000  0.0000000  0.0000000  0.0000000  0.0000000
 2   0.0000000  1.0000000  0.0000000  0.0000000  0.0000000
 3   0.0000000  0.0000000  1.0000000  0.0000000  0.0000000
 4   0.0000000  0.0000000  0.0000000  1.0000000  0.0000000
 5   0.0000000  0.0000000  0.0000000  0.0000000  1.0000000
 occupations
 0.600  0.000  0.000  0.000  0.000
 0.000  0.600  0.000  0.000  0.000
 0.000  0.000  0.600  0.000  0.000
 0.000  0.000  0.000  0.600  0.000
 0.000  0.000  0.000  0.000  0.600
atom   12   spin  2
eigenvalues:  0.0000000 0.0000000 0.0000000 0.0000000 0.0000000
 eigenvectors
 1   1.0000000  0.0000000  0.0000000  0.0000000  0.0000000
 2   0.0000000  1.0000000  0.0000000  0.0000000  0.0000000
 3   0.0000000  0.0000000  1.0000000  0.0000000  0.0000000
 4   0.0000000  0.0000000  0.0000000  1.0000000  0.0000000
 5   0.0000000  0.0000000  0.0000000  0.0000000  1.0000000
 occupations
 0.000  0.000  0.000  0.000  0.000
 0.000  0.000  0.000  0.000  0.000
 0.000  0.000  0.000  0.000  0.000
 0.000  0.000  0.000  0.000  0.000
 0.000  0.000  0.000  0.000  0.000
atom   13   Tr[ns(na)]=   3.0000000
atom   13   spin  1
eigenvalues:  0.6000000 0.6000000 0.6000000 0.6000000 0.6000000
 eigenvectors
 1   1.0000000  0.0000000  0.0000000  0.0000000  0.0000000
 2   0.0000000  1.0000000  0.0000000  0.0000000  0.0000000
 3   0.0000000  0.0000000  1.0000000  0.0000000  0.0000000
 4   0.0000000  0.0000000  0.0000000  1.0000000  0.0000000
 5   0.0000000  0.0000000  0.0000000  0.0000000  1.0000000
 occupations
 0.600  0.000  0.000  0.000  0.000
 0.000  0.600  0.000  0.000  0.000
 0.000  0.000  0.600  0.000  0.000
 0.000  0.000  0.000  0.600  0.000
 0.000  0.000  0.000  0.000  0.600
atom   13   spin  2
eigenvalues:  0.0000000 0.0000000 0.0000000 0.0000000 0.0000000
 eigenvectors
 1   1.0000000  0.0000000  0.0000000  0.0000000  0.0000000
 2   0.0000000  1.0000000  0.0000000  0.0000000  0.0000000
 3   0.0000000  0.0000000  1.0000000  0.0000000  0.0000000
 4   0.0000000  0.0000000  0.0000000  1.0000000  0.0000000
 5   0.0000000  0.0000000  0.0000000  0.0000000  1.0000000
 occupations
 0.000  0.000  0.000  0.000  0.000
 0.000  0.000  0.000  0.000  0.000
 0.000  0.000  0.000  0.000  0.000
 0.000  0.000  0.000  0.000  0.000
 0.000  0.000  0.000  0.000  0.000
atom   14   Tr[ns(na)]=   3.0000000
atom   14   spin  1
eigenvalues:  0.6000000 0.6000000 0.6000000 0.6000000 0.6000000
 eigenvectors
 1   1.0000000  0.0000000  0.0000000  0.0000000  0.0000000
 2   0.0000000  1.0000000  0.0000000  0.0000000  0.0000000
 3   0.0000000  0.0000000  1.0000000  0.0000000  0.0000000
 4   0.0000000  0.0000000  0.0000000  1.0000000  0.0000000
 5   0.0000000  0.0000000  0.0000000  0.0000000  1.0000000
 occupations
 0.600  0.000  0.000  0.000  0.000
 0.000  0.600  0.000  0.000  0.000
 0.000  0.000  0.600  0.000  0.000
 0.000  0.000  0.000  0.600  0.000
 0.000  0.000  0.000  0.000  0.600
atom   14   spin  2
eigenvalues:  0.0000000 0.0000000 0.0000000 0.0000000 0.0000000
 eigenvectors
 1   1.0000000  0.0000000  0.0000000  0.0000000  0.0000000
 2   0.0000000  1.0000000  0.0000000  0.0000000  0.0000000
 3   0.0000000  0.0000000  1.0000000  0.0000000  0.0000000
 4   0.0000000  0.0000000  0.0000000  1.0000000  0.0000000
 5   0.0000000  0.0000000  0.0000000  0.0000000  1.0000000
 occupations
 0.000  0.000  0.000  0.000  0.000
 0.000  0.000  0.000  0.000  0.000
 0.000  0.000  0.000  0.000  0.000
 0.000  0.000  0.000  0.000  0.000
 0.000  0.000  0.000  0.000  0.000
atom   15   Tr[ns(na)]=   3.0000000
atom   15   spin  1
eigenvalues:  0.6000000 0.6000000 0.6000000 0.6000000 0.6000000
 eigenvectors
 1   1.0000000  0.0000000  0.0000000  0.0000000  0.0000000
 2   0.0000000  1.0000000  0.0000000  0.0000000  0.0000000
 3   0.0000000  0.0000000  1.0000000  0.0000000  0.0000000
 4   0.0000000  0.0000000  0.0000000  1.0000000  0.0000000
 5   0.0000000  0.0000000  0.0000000  0.0000000  1.0000000
 occupations
 0.600  0.000  0.000  0.000  0.000
 0.000  0.600  0.000  0.000  0.000
 0.000  0.000  0.600  0.000  0.000
 0.000  0.000  0.000  0.600  0.000
 0.000  0.000  0.000  0.000  0.600
atom   15   spin  2
eigenvalues:  0.0000000 0.0000000 0.0000000 0.0000000 0.0000000
 eigenvectors
 1   1.0000000  0.0000000  0.0000000  0.0000000  0.0000000
 2   0.0000000  1.0000000  0.0000000  0.0000000  0.0000000
 3   0.0000000  0.0000000  1.0000000  0.0000000  0.0000000
 4   0.0000000  0.0000000  0.0000000  1.0000000  0.0000000
 5   0.0000000  0.0000000  0.0000000  0.0000000  1.0000000
 occupations
 0.000  0.000  0.000  0.000  0.000
 0.000  0.000  0.000  0.000  0.000
 0.000  0.000  0.000  0.000  0.000
 0.000  0.000  0.000  0.000  0.000
 0.000  0.000  0.000  0.000  0.000
atom   16   Tr[ns(na)]=   3.0000000
atom   16   spin  1
eigenvalues:  0.6000000 0.6000000 0.6000000 0.6000000 0.6000000
 eigenvectors
 1   1.0000000  0.0000000  0.0000000  0.0000000  0.0000000
 2   0.0000000  1.0000000  0.0000000  0.0000000  0.0000000
 3   0.0000000  0.0000000  1.0000000  0.0000000  0.0000000
 4   0.0000000  0.0000000  0.0000000  1.0000000  0.0000000
 5   0.0000000  0.0000000  0.0000000  0.0000000  1.0000000
 occupations
 0.600  0.000  0.000  0.000  0.000
 0.000  0.600  0.000  0.000  0.000
 0.000  0.000  0.600  0.000  0.000
 0.000  0.000  0.000  0.600  0.000
 0.000  0.000  0.000  0.000  0.600
atom   16   spin  2
eigenvalues:  0.0000000 0.0000000 0.0000000 0.0000000 0.0000000
 eigenvectors
 1   1.0000000  0.0000000  0.0000000  0.0000000  0.0000000
 2   0.0000000  1.0000000  0.0000000  0.0000000  0.0000000
 3   0.0000000  0.0000000  1.0000000  0.0000000  0.0000000
 4   0.0000000  0.0000000  0.0000000  1.0000000  0.0000000
 5   0.0000000  0.0000000  0.0000000  0.0000000  1.0000000
 occupations
 0.000  0.000  0.000  0.000  0.000
 0.000  0.000  0.000  0.000  0.000
 0.000  0.000  0.000  0.000  0.000
 0.000  0.000  0.000  0.000  0.000
 0.000  0.000  0.000  0.000  0.000
atom   17   Tr[ns(na)]=   3.0000000
atom   17   spin  1
eigenvalues:  0.6000000 0.6000000 0.6000000 0.6000000 0.6000000
 eigenvectors
 1   1.0000000  0.0000000  0.0000000  0.0000000  0.0000000
 2   0.0000000  1.0000000  0.0000000  0.0000000  0.0000000
 3   0.0000000  0.0000000  1.0000000  0.0000000  0.0000000
 4   0.0000000  0.0000000  0.0000000  1.0000000  0.0000000
 5   0.0000000  0.0000000  0.0000000  0.0000000  1.0000000
 occupations
 0.600  0.000  0.000  0.000  0.000
 0.000  0.600  0.000  0.000  0.000
 0.000  0.000  0.600  0.000  0.000
 0.000  0.000  0.000  0.600  0.000
 0.000  0.000  0.000  0.000  0.600
atom   17   spin  2
eigenvalues:  0.0000000 0.0000000 0.0000000 0.0000000 0.0000000
 eigenvectors
 1   1.0000000  0.0000000  0.0000000  0.0000000  0.0000000
 2   0.0000000  1.0000000  0.0000000  0.0000000  0.0000000
 3   0.0000000  0.0000000  1.0000000  0.0000000  0.0000000
 4   0.0000000  0.0000000  0.0000000  1.0000000  0.0000000
 5   0.0000000  0.0000000  0.0000000  0.0000000  1.0000000
 occupations
 0.000  0.000  0.000  0.000  0.000
 0.000  0.000  0.000  0.000  0.000
 0.000  0.000  0.000  0.000  0.000
 0.000  0.000  0.000  0.000  0.000
 0.000  0.000  0.000  0.000  0.000
atom   18   Tr[ns(na)]=   3.0000000
atom   18   spin  1
eigenvalues:  0.6000000 0.6000000 0.6000000 0.6000000 0.6000000
 eigenvectors
 1   1.0000000  0.0000000  0.0000000  0.0000000  0.0000000
 2   0.0000000  1.0000000  0.0000000  0.0000000  0.0000000
 3   0.0000000  0.0000000  1.0000000  0.0000000  0.0000000
 4   0.0000000  0.0000000  0.0000000  1.0000000  0.0000000
 5   0.0000000  0.0000000  0.0000000  0.0000000  1.0000000
 occupations
 0.600  0.000  0.000  0.000  0.000
 0.000  0.600  0.000  0.000  0.000
 0.000  0.000  0.600  0.000  0.000
 0.000  0.000  0.000  0.600  0.000
 0.000  0.000  0.000  0.000  0.600
atom   18   spin  2
eigenvalues:  0.0000000 0.0000000 0.0000000 0.0000000 0.0000000
 eigenvectors
 1   1.0000000  0.0000000  0.0000000  0.0000000  0.0000000
 2   0.0000000  1.0000000  0.0000000  0.0000000  0.0000000
 3   0.0000000  0.0000000  1.0000000  0.0000000  0.0000000
 4   0.0000000  0.0000000  0.0000000  1.0000000  0.0000000
 5   0.0000000  0.0000000  0.0000000  0.0000000  1.0000000
 occupations
 0.000  0.000  0.000  0.000  0.000
 0.000  0.000  0.000  0.000  0.000
 0.000  0.000  0.000  0.000  0.000
 0.000  0.000  0.000  0.000  0.000
 0.000  0.000  0.000  0.000  0.000
atom   19   Tr[ns(na)]=   3.0000000
atom   19   spin  1
eigenvalues:  0.6000000 0.6000000 0.6000000 0.6000000 0.6000000
 eigenvectors
 1   1.0000000  0.0000000  0.0000000  0.0000000  0.0000000
 2   0.0000000  1.0000000  0.0000000  0.0000000  0.0000000
 3   0.0000000  0.0000000  1.0000000  0.0000000  0.0000000
 4   0.0000000  0.0000000  0.0000000  1.0000000  0.0000000
 5   0.0000000  0.0000000  0.0000000  0.0000000  1.0000000
 occupations
 0.600  0.000  0.000  0.000  0.000
 0.000  0.600  0.000  0.000  0.000
 0.000  0.000  0.600  0.000  0.000
 0.000  0.000  0.000  0.600  0.000
 0.000  0.000  0.000  0.000  0.600
atom   19   spin  2
eigenvalues:  0.0000000 0.0000000 0.0000000 0.0000000 0.0000000
 eigenvectors
 1   1.0000000  0.0000000  0.0000000  0.0000000  0.0000000
 2   0.0000000  1.0000000  0.0000000  0.0000000  0.0000000
 3   0.0000000  0.0000000  1.0000000  0.0000000  0.0000000
 4   0.0000000  0.0000000  0.0000000  1.0000000  0.0000000
 5   0.0000000  0.0000000  0.0000000  0.0000000  1.0000000
 occupations
 0.000  0.000  0.000  0.000  0.000
 0.000  0.000  0.000  0.000  0.000
 0.000  0.000  0.000  0.000  0.000
 0.000  0.000  0.000  0.000  0.000
 0.000  0.000  0.000  0.000  0.000
atom   20   Tr[ns(na)]=   3.0000000
atom   20   spin  1
eigenvalues:  0.6000000 0.6000000 0.6000000 0.6000000 0.6000000
 eigenvectors
 1   1.0000000  0.0000000  0.0000000  0.0000000  0.0000000
 2   0.0000000  1.0000000  0.0000000  0.0000000  0.0000000
 3   0.0000000  0.0000000  1.0000000  0.0000000  0.0000000
 4   0.0000000  0.0000000  0.0000000  1.0000000  0.0000000
 5   0.0000000  0.0000000  0.0000000  0.0000000  1.0000000
 occupations
 0.600  0.000  0.000  0.000  0.000
 0.000  0.600  0.000  0.000  0.000
 0.000  0.000  0.600  0.000  0.000
 0.000  0.000  0.000  0.600  0.000
 0.000  0.000  0.000  0.000  0.600
atom   20   spin  2
eigenvalues:  0.0000000 0.0000000 0.0000000 0.0000000 0.0000000
 eigenvectors
 1   1.0000000  0.0000000  0.0000000  0.0000000  0.0000000
 2   0.0000000  1.0000000  0.0000000  0.0000000  0.0000000
 3   0.0000000  0.0000000  1.0000000  0.0000000  0.0000000
 4   0.0000000  0.0000000  0.0000000  1.0000000  0.0000000
 5   0.0000000  0.0000000  0.0000000  0.0000000  1.0000000
 occupations
 0.000  0.000  0.000  0.000  0.000
 0.000  0.000  0.000  0.000  0.000
 0.000  0.000  0.000  0.000  0.000
 0.000  0.000  0.000  0.000  0.000
 0.000  0.000  0.000  0.000  0.000
atom   21   Tr[ns(na)]=   3.0000000
atom   21   spin  1
eigenvalues:  0.6000000 0.6000000 0.6000000 0.6000000 0.6000000
 eigenvectors
 1   1.0000000  0.0000000  0.0000000  0.0000000  0.0000000
 2   0.0000000  1.0000000  0.0000000  0.0000000  0.0000000
 3   0.0000000  0.0000000  1.0000000  0.0000000  0.0000000
 4   0.0000000  0.0000000  0.0000000  1.0000000  0.0000000
 5   0.0000000  0.0000000  0.0000000  0.0000000  1.0000000
 occupations
 0.600  0.000  0.000  0.000  0.000
 0.000  0.600  0.000  0.000  0.000
 0.000  0.000  0.600  0.000  0.000
 0.000  0.000  0.000  0.600  0.000
 0.000  0.000  0.000  0.000  0.600
atom   21   spin  2
eigenvalues:  0.0000000 0.0000000 0.0000000 0.0000000 0.0000000
 eigenvectors
 1   1.0000000  0.0000000  0.0000000  0.0000000  0.0000000
 2   0.0000000  1.0000000  0.0000000  0.0000000  0.0000000
 3   0.0000000  0.0000000  1.0000000  0.0000000  0.0000000
 4   0.0000000  0.0000000  0.0000000  1.0000000  0.0000000
 5   0.0000000  0.0000000  0.0000000  0.0000000  1.0000000
 occupations
 0.000  0.000  0.000  0.000  0.000
 0.000  0.000  0.000  0.000  0.000
 0.000  0.000  0.000  0.000  0.000
 0.000  0.000  0.000  0.000  0.000
 0.000  0.000  0.000  0.000  0.000
atom   22   Tr[ns(na)]=   3.0000000
atom   22   spin  1
eigenvalues:  0.6000000 0.6000000 0.6000000 0.6000000 0.6000000
 eigenvectors
 1   1.0000000  0.0000000  0.0000000  0.0000000  0.0000000
 2   0.0000000  1.0000000  0.0000000  0.0000000  0.0000000
 3   0.0000000  0.0000000  1.0000000  0.0000000  0.0000000
 4   0.0000000  0.0000000  0.0000000  1.0000000  0.0000000
 5   0.0000000  0.0000000  0.0000000  0.0000000  1.0000000
 occupations
 0.600  0.000  0.000  0.000  0.000
 0.000  0.600  0.000  0.000  0.000
 0.000  0.000  0.600  0.000  0.000
 0.000  0.000  0.000  0.600  0.000
 0.000  0.000  0.000  0.000  0.600
atom   22   spin  2
eigenvalues:  0.0000000 0.0000000 0.0000000 0.0000000 0.0000000
 eigenvectors
 1   1.0000000  0.0000000  0.0000000  0.0000000  0.0000000
 2   0.0000000  1.0000000  0.0000000  0.0000000  0.0000000
 3   0.0000000  0.0000000  1.0000000  0.0000000  0.0000000
 4   0.0000000  0.0000000  0.0000000  1.0000000  0.0000000
 5   0.0000000  0.0000000  0.0000000  0.0000000  1.0000000
 occupations
 0.000  0.000  0.000  0.000  0.000
 0.000  0.000  0.000  0.000  0.000
 0.000  0.000  0.000  0.000  0.000
 0.000  0.000  0.000  0.000  0.000
 0.000  0.000  0.000  0.000  0.000
atom   23   Tr[ns(na)]=   3.0000000
atom   23   spin  1
eigenvalues:  0.6000000 0.6000000 0.6000000 0.6000000 0.6000000
 eigenvectors
 1   1.0000000  0.0000000  0.0000000  0.0000000  0.0000000
 2   0.0000000  1.0000000  0.0000000  0.0000000  0.0000000
 3   0.0000000  0.0000000  1.0000000  0.0000000  0.0000000
 4   0.0000000  0.0000000  0.0000000  1.0000000  0.0000000
 5   0.0000000  0.0000000  0.0000000  0.0000000  1.0000000
 occupations
 0.600  0.000  0.000  0.000  0.000
 0.000  0.600  0.000  0.000  0.000
 0.000  0.000  0.600  0.000  0.000
 0.000  0.000  0.000  0.600  0.000
 0.000  0.000  0.000  0.000  0.600
atom   23   spin  2
eigenvalues:  0.0000000 0.0000000 0.0000000 0.0000000 0.0000000
 eigenvectors
 1   1.0000000  0.0000000  0.0000000  0.0000000  0.0000000
 2   0.0000000  1.0000000  0.0000000  0.0000000  0.0000000
 3   0.0000000  0.0000000  1.0000000  0.0000000  0.0000000
 4   0.0000000  0.0000000  0.0000000  1.0000000  0.0000000
 5   0.0000000  0.0000000  0.0000000  0.0000000  1.0000000
 occupations
 0.000  0.000  0.000  0.000  0.000
 0.000  0.000  0.000  0.000  0.000
 0.000  0.000  0.000  0.000  0.000
 0.000  0.000  0.000  0.000  0.000
 0.000  0.000  0.000  0.000  0.000
atom   24   Tr[ns(na)]=   3.0000000
atom   24   spin  1
eigenvalues:  0.6000000 0.6000000 0.6000000 0.6000000 0.6000000
 eigenvectors
 1   1.0000000  0.0000000  0.0000000  0.0000000  0.0000000
 2   0.0000000  1.0000000  0.0000000  0.0000000  0.0000000
 3   0.0000000  0.0000000  1.0000000  0.0000000  0.0000000
 4   0.0000000  0.0000000  0.0000000  1.0000000  0.0000000
 5   0.0000000  0.0000000  0.0000000  0.0000000  1.0000000
 occupations
 0.600  0.000  0.000  0.000  0.000
 0.000  0.600  0.000  0.000  0.000
 0.000  0.000  0.600  0.000  0.000
 0.000  0.000  0.000  0.600  0.000
 0.000  0.000  0.000  0.000  0.600
atom   24   spin  2
eigenvalues:  0.0000000 0.0000000 0.0000000 0.0000000 0.0000000
 eigenvectors
 1   1.0000000  0.0000000  0.0000000  0.0000000  0.0000000
 2   0.0000000  1.0000000  0.0000000  0.0000000  0.0000000
 3   0.0000000  0.0000000  1.0000000  0.0000000  0.0000000
 4   0.0000000  0.0000000  0.0000000  1.0000000  0.0000000
 5   0.0000000  0.0000000  0.0000000  0.0000000  1.0000000
 occupations
 0.000  0.000  0.000  0.000  0.000
 0.000  0.000  0.000  0.000  0.000
 0.000  0.000  0.000  0.000  0.000
 0.000  0.000  0.000  0.000  0.000
 0.000  0.000  0.000  0.000  0.000
nsum =  72.0000000
 exit write_ns
 Atomic wfc used for LDA+U Projector are NOT orthogonalized
     Starting wfc are  480 atomic wfcs

     total cpu time spent up to now is     26.71 secs

     per-process dynamical memory:   105.3 Mb

     Self-consistent Calculation

     iteration #  1     ecut=    30.00 Ry     beta=0.30
     Davidson diagonalization with overlap
     ethr =  1.00E-02,  avg # of iterations =  2.0
 enter write_ns
U( 1) =  0.0000      U( 2) =  3.1000
alpha( 1) =  0.0000      alpha( 2) =  0.0000
atom    1   Tr[ns(na)]=   3.0079456
atom    1   spin  1
eigenvalues:  0.2145732 0.3223199 0.3243420 0.3800442 0.4282586
 eigenvectors
 1  -0.0000000 -0.0000000  0.0961806  0.0000000  0.9953639
 2  -0.0000000 -0.0000000 -0.9953639  0.0000000  0.0961806
 3  -0.0110516 -0.9386477  0.0000000  0.3447003 -0.0000000
 4   0.1265353  0.3406374  0.0000000  0.9316410 -0.0000000
 5  -0.9919005  0.0539129  0.0000000  0.1150075 -0.0000000
 occupations
 0.427 -0.003 -0.000 -0.005  0.000
-0.003  0.331 -0.000  0.018  0.000
-0.000 -0.000  0.321  0.000 -0.010
-0.005  0.018  0.000  0.374 -0.000
 0.000  0.000 -0.010 -0.000  0.216
atom    1   spin  2
eigenvalues:  0.1587267 0.2440652 0.2458967 0.3229653 0.3667538
 eigenvectors
 1  -0.0000000 -0.0000000  0.1514272  0.0000000  0.9884684
 2  -0.0000000 -0.0000000 -0.9884684  0.0000000  0.1514272
 3  -0.0229552 -0.9593550  0.0000000  0.2812669 -0.0000000
 4   0.1456246  0.2751316  0.0000000  0.9503137 -0.0000000
 5  -0.9890736  0.0627740  0.0000000  0.1333900 -0.0000000
 occupations
 0.366 -0.004 -0.000 -0.005  0.000
-0.004  0.252 -0.000  0.021  0.000
-0.000 -0.000  0.242  0.000 -0.013
-0.005  0.021  0.000  0.318 -0.000
 0.000  0.000 -0.013 -0.000  0.161
atom    2   Tr[ns(na)]=   3.0079539
atom    2   spin  1
eigenvalues:  0.2145707 0.3223175 0.3243295 0.3800815 0.4282486
 eigenvectors
 1  -0.0000000 -0.0000000  0.0961143  0.0000000  0.9953703
 2  -0.0000000 -0.0000000 -0.9953703  0.0000000  0.0961143
 3  -0.0110542 -0.9386352  0.0000000  0.3447342 -0.0000000
 4   0.1265473  0.3406701  0.0000000  0.9316274 -0.0000000
 5  -0.9918990  0.0539236  0.0000000  0.1150159 -0.0000000
 occupations
 0.427 -0.003 -0.000 -0.005  0.000
-0.003  0.331 -0.000  0.018  0.000
-0.000 -0.000  0.321  0.000 -0.010
-0.005  0.018  0.000  0.374 -0.000
 0.000  0.000 -0.010 -0.000  0.216
atom    2   spin  2
eigenvalues:  0.1587386 0.2440412 0.2458965 0.3229767 0.3667529
 eigenvectors
 1  -0.0000000 -0.0000000  0.1516094  0.0000000  0.9884405
 2  -0.0000000 -0.0000000 -0.9884405  0.0000000  0.1516094
 3  -0.0229551 -0.9593523  0.0000000  0.2812760 -0.0000000
 4   0.1456171  0.2751412  0.0000000  0.9503120 -0.0000000
 5  -0.9890747  0.0627731  0.0000000  0.1333822 -0.0000000
 occupations
 0.366 -0.004 -0.000 -0.005  0.000
-0.004  0.252 -0.000  0.021  0.000
-0.000 -0.000  0.242  0.000 -0.013
-0.005  0.021  0.000  0.318 -0.000
 0.000  0.000 -0.013 -0.000  0.161
atom    3   Tr[ns(na)]=   3.0079433
atom    3   spin  1
eigenvalues:  0.2145796 0.3223168 0.3243370 0.3800306 0.4282579
 eigenvectors
 1  -0.0000006  0.0000286  0.0962917 -0.0000383  0.9953532
 2  -0.0000337 -0.0001760  0.9953531  0.0002949 -0.0962917
 3   0.0110564  0.9385643  0.0002622 -0.3449272 -0.0000656
 4   0.1265323  0.3408623 -0.0002070  0.9315591  0.0000461
 5  -0.9919009  0.0539441 -0.0000574  0.1149900  0.0000078
 occupations
 0.427 -0.003  0.000 -0.005 -0.000
-0.003  0.331 -0.000  0.018 -0.000
 0.000 -0.000  0.321 -0.000 -0.010
-0.005  0.018 -0.000  0.374  0.000
-0.000 -0.000 -0.010  0.000  0.216
atom    3   spin  2
eigenvalues:  0.1587204 0.2440673 0.2459010 0.3229791 0.3667537
 eigenvectors
 1   0.0000098 -0.0000174  0.1512836  0.0000351  0.9884904
 2   0.0000081 -0.0006974 -0.9884901  0.0003151  0.1512835
 3   0.0229625  0.9593759 -0.0007448 -0.2811938  0.0001406
 4  -0.1456098 -0.2750594 -0.0001030 -0.9503368  0.0000461
 5  -0.9890756  0.0627667 -0.0000087  0.1333785  0.0000076
 occupations
 0.366 -0.004  0.000 -0.005 -0.000
-0.004  0.252  0.000  0.021  0.000
 0.000  0.000  0.242  0.000 -0.013
-0.005  0.021  0.000  0.318 -0.000
-0.000  0.000 -0.013 -0.000  0.161
atom    4   Tr[ns(na)]=   3.0079398
atom    4   spin  1
eigenvalues:  0.2146101 0.3222936 0.3243351 0.3800352 0.4282564
 eigenvectors
 1  -0.0000509 -0.0000261  0.0967546 -0.0001036  0.9953083
 2  -0.0000580 -0.0025256  0.9953040  0.0014953 -0.0967541
 3  -0.0110562 -0.9385595 -0.0028723  0.3449282  0.0002899
 4  -0.1265352 -0.3408659  0.0005115 -0.9315573 -0.0001621
 5  -0.9919005  0.0539455 -0.0000964  0.1149925 -0.0000280
 occupations
 0.427 -0.003  0.000 -0.005  0.000
-0.003  0.331 -0.000  0.018  0.000
 0.000 -0.000  0.321 -0.000 -0.010
-0.005  0.018 -0.000  0.374  0.000
 0.000  0.000 -0.010  0.000  0.216
atom    4   spin  2
eigenvalues:  0.1587331 0.2440414 0.2458958 0.3229878 0.3667513
 eigenvectors
 1   0.0000061 -0.0000199  0.1515262  0.0000295  0.9884532
 2   0.0000046 -0.0002770 -0.9884532  0.0001933  0.1515262
 3   0.0229620  0.9593817 -0.0003122 -0.2811750  0.0000755
 4  -0.1456043 -0.2750410 -0.0001034 -0.9503430  0.0000396
 5  -0.9890764  0.0627621  0.0000043  0.1333746  0.0000027
 occupations
 0.366 -0.004  0.000 -0.005 -0.000
-0.004  0.252  0.000  0.021  0.000
 0.000  0.000  0.242  0.000 -0.013
-0.005  0.021  0.000  0.318 -0.000
-0.000  0.000 -0.013 -0.000  0.161
atom    5   Tr[ns(na)]=   3.0079433
atom    5   spin  1
eigenvalues:  0.2145796 0.3223168 0.3243370 0.3800306 0.4282579
 eigenvectors
 1   0.0000006 -0.0000286  0.0962917  0.0000383  0.9953532
 2  -0.0000337 -0.0001760 -0.9953531  0.0002949  0.0962917
 3  -0.0110564 -0.9385643  0.0002622  0.3449272 -0.0000656
 4   0.1265323  0.3408623  0.0002070  0.9315591 -0.0000461
 5  -0.9919009  0.0539441  0.0000574  0.1149900 -0.0000078
 occupations
 0.427 -0.003 -0.000 -0.005  0.000
-0.003  0.331  0.000  0.018  0.000
-0.000  0.000  0.321  0.000 -0.010
-0.005  0.018  0.000  0.374 -0.000
 0.000  0.000 -0.010 -0.000  0.216
atom    5   spin  2
eigenvalues:  0.1587204 0.2440673 0.2459010 0.3229791 0.3667537
 eigenvectors
 1  -0.0000098  0.0000174  0.1512836 -0.0000351  0.9884904
 2   0.0000081 -0.0006974  0.9884901  0.0003151 -0.1512835
 3  -0.0229625 -0.9593759 -0.0007448  0.2811938  0.0001406
 4  -0.1456098 -0.2750594  0.0001030 -0.9503368 -0.0000461
 5  -0.9890756  0.0627667  0.0000087  0.1333785 -0.0000076
 occupations
 0.366 -0.004 -0.000 -0.005  0.000
-0.004  0.252 -0.000  0.021 -0.000
-0.000 -0.000  0.242 -0.000 -0.013
-0.005  0.021 -0.000  0.318  0.000
 0.000 -0.000 -0.013  0.000  0.161
atom    6   Tr[ns(na)]=   3.0079398
atom    6   spin  1
eigenvalues:  0.2146101 0.3222936 0.3243351 0.3800352 0.4282564
 eigenvectors
 1   0.0000509  0.0000261  0.0967546  0.0001036  0.9953083
 2  -0.0000580 -0.0025256 -0.9953040  0.0014953  0.0967541
 3   0.0110562  0.9385595 -0.0028723 -0.3449282  0.0002899
 4  -0.1265352 -0.3408659 -0.0005115 -0.9315573  0.0001621
 5  -0.9919005  0.0539455  0.0000964  0.1149925  0.0000280
 occupations
 0.427 -0.003 -0.000 -0.005 -0.000
-0.003  0.331  0.000  0.018 -0.000
-0.000  0.000  0.321  0.000 -0.010
-0.005  0.018  0.000  0.374 -0.000
-0.000 -0.000 -0.010 -0.000  0.216
atom    6   spin  2
eigenvalues:  0.1587331 0.2440414 0.2458958 0.3229878 0.3667513
 eigenvectors
 1  -0.0000061  0.0000199  0.1515262 -0.0000295  0.9884532
 2   0.0000046 -0.0002770  0.9884532  0.0001933 -0.1515262
 3  -0.0229620 -0.9593817 -0.0003122  0.2811750  0.0000755
 4  -0.1456043 -0.2750410  0.0001034 -0.9503430 -0.0000396
 5  -0.9890764  0.0627621 -0.0000043  0.1333746 -0.0000027
 occupations
 0.366 -0.004 -0.000 -0.005  0.000
-0.004  0.252 -0.000  0.021 -0.000
-0.000 -0.000  0.242 -0.000 -0.013
-0.005  0.021 -0.000  0.318  0.000
 0.000 -0.000 -0.013  0.000  0.161
atom    7   Tr[ns(na)]=   3.0078942
atom    7   spin  1
eigenvalues:  0.2145802 0.3223069 0.3243292 0.3800681 0.4282155
 eigenvectors
 1   0.0000448  0.0000164  0.0962887  0.0001070  0.9953534
 2  -0.0000354 -0.0014845 -0.9953518  0.0010699  0.0962885
 3   0.0110374  0.9386486 -0.0017524 -0.3446939  0.0001906
 4  -0.1267652 -0.3406215 -0.0004737 -0.9316155  0.0001573
 5  -0.9918713  0.0539780  0.0000809  0.1152285  0.0000235
 occupations
 0.427 -0.003 -0.000 -0.005 -0.000
-0.003  0.331  0.000  0.018 -0.000
-0.000  0.000  0.321  0.000 -0.010
-0.005  0.018  0.000  0.374 -0.000
-0.000 -0.000 -0.010 -0.000  0.216
atom    7   spin  2
eigenvalues:  0.1587352 0.2440367 0.2458925 0.3229816 0.3667482
 eigenvectors
 1  -0.0000044  0.0000348  0.1515424 -0.0000300  0.9884508
 2   0.0000237  0.0005096  0.9884506 -0.0000434 -0.1515424
 3  -0.0229591 -0.9593704  0.0005022  0.2812136 -0.0000348
 4  -0.1456190 -0.2750787  0.0000982 -0.9503299 -0.0000349
 5  -0.9890743  0.0627687 -0.0000031  0.1333870 -0.0000021
 occupations
 0.366 -0.004 -0.000 -0.005  0.000
-0.004  0.252 -0.000  0.021 -0.000
-0.000 -0.000  0.242 -0.000 -0.013
-0.005  0.021 -0.000  0.318  0.000
 0.000 -0.000 -0.013  0.000  0.161
atom    8   Tr[ns(na)]=   3.0078996
atom    8   spin  1
eigenvalues:  0.2145755 0.3223176 0.3243375 0.3800439 0.4282218
 eigenvectors
 1  -0.0000002 -0.0000110  0.0962220  0.0000450  0.9953599
 2  -0.0000252 -0.0007587 -0.9953595  0.0004886  0.0962219
 3  -0.0110462 -0.9386311  0.0008742  0.3447448 -0.0001105
 4   0.1267603  0.3406702  0.0001890  0.9315984 -0.0000566
 5  -0.9918719  0.0539906  0.0000396  0.1152180 -0.0000087
 occupations
 0.427 -0.003 -0.000 -0.005  0.000
-0.003  0.331  0.000  0.018  0.000
-0.000  0.000  0.321  0.000 -0.010
-0.005  0.018  0.000  0.374 -0.000
 0.000  0.000 -0.010 -0.000  0.216
atom    8   spin  2
eigenvalues:  0.1587249 0.2440627 0.2458948 0.3229717 0.3667492
 eigenvectors
 1  -0.0000099  0.0000179  0.1513858 -0.0000367  0.9884748
 2   0.0000086 -0.0006631  0.9884745  0.0003022 -0.1513857
 3  -0.0229596 -0.9593683 -0.0007085  0.2812203  0.0001361
 4  -0.1456267 -0.2750849  0.0001001 -0.9503269 -0.0000471
 5  -0.9890732  0.0627723  0.0000088  0.1333939 -0.0000074
 occupations
 0.366 -0.004 -0.000 -0.005  0.000
-0.004  0.252 -0.000  0.021 -0.000
-0.000 -0.000  0.242 -0.000 -0.013
-0.005  0.021 -0.000  0.318  0.000
 0.000 -0.000 -0.013  0.000  0.161
atom    9   Tr[ns(na)]=   3.0078696
atom    9   spin  1
eigenvalues:  0.2146171 0.3222816 0.3243340 0.3800139 0.4282279
 eigenvectors
 1  -0.0000000 -0.0000000  0.0969145  0.0000000  0.9952927
 2  -0.0000000 -0.0000000 -0.9952927  0.0000000  0.0969145
 3  -0.0110448 -0.9385628  0.0000000  0.3449318 -0.0000000
 4   0.1267348  0.3408571  0.0000000  0.9315335 -0.0000000
 5  -0.9918751  0.0540035  0.0000000  0.1151839 -0.0000000
 occupations
 0.427 -0.003 -0.000 -0.005  0.000
-0.003  0.331 -0.000  0.018  0.000
-0.000 -0.000  0.321  0.000 -0.010
-0.005  0.018  0.000  0.374 -0.000
 0.000  0.000 -0.010 -0.000  0.216
atom    9   spin  2
eigenvalues:  0.1587308 0.2440365 0.2458910 0.3229892 0.3667475
 eigenvectors
 1  -0.0000000 -0.0000000  0.1514793  0.0000000  0.9884604
 2  -0.0000000 -0.0000000 -0.9884604  0.0000000  0.1514793
 3  -0.0229615 -0.9594056  0.0000000  0.2810936 -0.0000000
 4   0.1456319  0.2749587  0.0000000  0.9503626 -0.0000000
 5  -0.9890723  0.0627580  0.0000000  0.1334066 -0.0000000
 occupations
 0.366 -0.004 -0.000 -0.005  0.000
-0.004  0.252 -0.000  0.021  0.000
-0.000 -0.000  0.242  0.000 -0.013
-0.005  0.021  0.000  0.318 -0.000
 0.000  0.000 -0.013 -0.000  0.161
atom   10   Tr[ns(na)]=   3.0078913
atom   10   spin  1
eigenvalues:  0.2145831 0.3223129 0.3243326 0.3800203 0.4282264
 eigenvectors
 1  -0.0000000 -0.0000000  0.0963460  0.0000000  0.9953479
 2  -0.0000000 -0.0000000 -0.9953479  0.0000000  0.0963460
 3  -0.0110430 -0.9385642  0.0000000  0.3449280 -0.0000000
 4   0.1267368  0.3408535  0.0000000  0.9315346 -0.0000000
 5  -0.9918749  0.0540020  0.0000000  0.1151866 -0.0000000
 occupations
 0.427 -0.003 -0.000 -0.005  0.000
-0.003  0.331 -0.000  0.018  0.000
-0.000 -0.000  0.321  0.000 -0.010
-0.005  0.018  0.000  0.374 -0.000
 0.000  0.000 -0.010 -0.000  0.216
atom   10   spin  2
eigenvalues:  0.1587189 0.2440651 0.2458995 0.3229832 0.3667492
 eigenvectors
 1  -0.0000000 -0.0000000  0.1512387  0.0000000  0.9884973
 2  -0.0000000 -0.0000000 -0.9884973  0.0000000  0.1512387
 3  -0.0229642 -0.9593914  0.0000000  0.2811419 -0.0000000
 4   0.1456377  0.2750058 -0.0000000  0.9503481 -0.0000000
 5  -0.9890714  0.0627688  0.0000000  0.1334083 -0.0000000
 occupations
 0.366 -0.004 -0.000 -0.005  0.000
-0.004  0.252 -0.000  0.021  0.000
-0.000 -0.000  0.242  0.000 -0.013
-0.005  0.021  0.000  0.318 -0.000
 0.000  0.000 -0.013 -0.000  0.161
atom   11   Tr[ns(na)]=   3.0078942
atom   11   spin  1
eigenvalues:  0.2145802 0.3223069 0.3243292 0.3800681 0.4282155
 eigenvectors
 1  -0.0000448 -0.0000164  0.0962887 -0.0001070  0.9953534
 2  -0.0000354 -0.0014845  0.9953518  0.0010699 -0.0962885
 3  -0.0110374 -0.9386486 -0.0017524  0.3446939  0.0001906
 4  -0.1267652 -0.3406215  0.0004737 -0.9316155 -0.0001573
 5  -0.9918713  0.0539780 -0.0000809  0.1152285 -0.0000235
 occupations
 0.427 -0.003  0.000 -0.005  0.000
-0.003  0.331 -0.000  0.018  0.000
 0.000 -0.000  0.321 -0.000 -0.010
-0.005  0.018 -0.000  0.374  0.000
 0.000  0.000 -0.010  0.000  0.216
atom   11   spin  2
eigenvalues:  0.1587352 0.2440367 0.2458925 0.3229816 0.3667482
 eigenvectors
 1   0.0000044 -0.0000348  0.1515424  0.0000300  0.9884508
 2   0.0000237  0.0005096 -0.9884506 -0.0000434  0.1515424
 3   0.0229591  0.9593704  0.0005022 -0.2812136 -0.0000348
 4  -0.1456190 -0.2750787 -0.0000982 -0.9503299  0.0000349
 5  -0.9890743  0.0627687  0.0000031  0.1333870  0.0000021
 occupations
 0.366 -0.004  0.000 -0.005 -0.000
-0.004  0.252  0.000  0.021  0.000
 0.000  0.000  0.242  0.000 -0.013
-0.005  0.021  0.000  0.318 -0.000
-0.000  0.000 -0.013 -0.000  0.161
atom   12   Tr[ns(na)]=   3.0078996
atom   12   spin  1
eigenvalues:  0.2145755 0.3223176 0.3243375 0.3800439 0.4282218
 eigenvectors
 1   0.0000002  0.0000110  0.0962220 -0.0000450  0.9953599
 2  -0.0000252 -0.0007587  0.9953595  0.0004886 -0.0962219
 3   0.0110462  0.9386311  0.0008742 -0.3447448 -0.0001105
 4   0.1267603  0.3406702 -0.0001890  0.9315984  0.0000566
 5  -0.9918719  0.0539906 -0.0000396  0.1152180  0.0000087
 occupations
 0.427 -0.003  0.000 -0.005 -0.000
-0.003  0.331 -0.000  0.018 -0.000
 0.000 -0.000  0.321 -0.000 -0.010
-0.005  0.018 -0.000  0.374  0.000
-0.000 -0.000 -0.010  0.000  0.216
atom   12   spin  2
eigenvalues:  0.1587249 0.2440627 0.2458948 0.3229717 0.3667492
 eigenvectors
 1   0.0000099 -0.0000179  0.1513858  0.0000367  0.9884748
 2   0.0000086 -0.0006631 -0.9884745  0.0003022  0.1513857
 3   0.0229596  0.9593683 -0.0007085 -0.2812203  0.0001361
 4  -0.1456267 -0.2750849 -0.0001001 -0.9503269  0.0000471
 5  -0.9890732  0.0627723 -0.0000088  0.1333939  0.0000074
 occupations
 0.366 -0.004  0.000 -0.005 -0.000
-0.004  0.252  0.000  0.021  0.000
 0.000  0.000  0.242  0.000 -0.013
-0.005  0.021  0.000  0.318 -0.000
-0.000  0.000 -0.013 -0.000  0.161
atom   13   Tr[ns(na)]=   3.0078942
atom   13   spin  1
eigenvalues:  0.2145802 0.3223069 0.3243292 0.3800681 0.4282155
 eigenvectors
 1  -0.0000448  0.0000164 -0.0962887 -0.0001070  0.9953534
 2  -0.0000354  0.0014845 -0.9953518  0.0010699 -0.0962885
 3  -0.0110374  0.9386486  0.0017524  0.3446939  0.0001906
 4  -0.1267652  0.3406215 -0.0004737 -0.9316155 -0.0001573
 5  -0.9918713 -0.0539780  0.0000809  0.1152285 -0.0000235
 occupations
 0.427  0.003 -0.000 -0.005  0.000
 0.003  0.331 -0.000 -0.018 -0.000
-0.000 -0.000  0.321  0.000  0.010
-0.005 -0.018  0.000  0.374  0.000
 0.000 -0.000  0.010  0.000  0.216
atom   13   spin  2
eigenvalues:  0.1587352 0.2440367 0.2458925 0.3229816 0.3667482
 eigenvectors
 1   0.0000044  0.0000348 -0.1515424  0.0000300  0.9884508
 2   0.0000237 -0.0005096  0.9884506 -0.0000434  0.1515424
 3   0.0229591 -0.9593704 -0.0005022 -0.2812136 -0.0000348
 4  -0.1456190  0.2750787  0.0000982 -0.9503299  0.0000349
 5  -0.9890743 -0.0627687 -0.0000031  0.1333870  0.0000021
 occupations
 0.366  0.004 -0.000 -0.005 -0.000
 0.004  0.252  0.000 -0.021 -0.000
-0.000  0.000  0.242 -0.000  0.013
-0.005 -0.021 -0.000  0.318 -0.000
-0.000 -0.000  0.013 -0.000  0.161
atom   14   Tr[ns(na)]=   3.0078996
atom   14   spin  1
eigenvalues:  0.2145755 0.3223176 0.3243375 0.3800439 0.4282218
 eigenvectors
 1   0.0000002 -0.0000110 -0.0962220 -0.0000450  0.9953599
 2  -0.0000252  0.0007587 -0.9953595  0.0004886 -0.0962219
 3   0.0110462 -0.9386311 -0.0008742 -0.3447448 -0.0001105
 4   0.1267603 -0.3406702  0.0001890  0.9315984  0.0000566
 5  -0.9918719 -0.0539906  0.0000396  0.1152180  0.0000087
 occupations
 0.427  0.003 -0.000 -0.005 -0.000
 0.003  0.331 -0.000 -0.018  0.000
-0.000 -0.000  0.321  0.000  0.010
-0.005 -0.018  0.000  0.374  0.000
-0.000  0.000  0.010  0.000  0.216
atom   14   spin  2
eigenvalues:  0.1587249 0.2440627 0.2458948 0.3229717 0.3667492
 eigenvectors
 1   0.0000099  0.0000179 -0.1513858  0.0000367  0.9884748
 2   0.0000086  0.0006631  0.9884745  0.0003022  0.1513857
 3   0.0229596 -0.9593683  0.0007085 -0.2812203  0.0001361
 4  -0.1456267  0.2750849  0.0001001 -0.9503269  0.0000471
 5  -0.9890732 -0.0627723  0.0000088  0.1333939  0.0000074
 occupations
 0.366  0.004 -0.000 -0.005 -0.000
 0.004  0.252  0.000 -0.021 -0.000
-0.000  0.000  0.242 -0.000  0.013
-0.005 -0.021 -0.000  0.318 -0.000
-0.000 -0.000  0.013 -0.000  0.161
atom   15   Tr[ns(na)]=   3.0078696
atom   15   spin  1
eigenvalues:  0.2146171 0.3222816 0.3243340 0.3800139 0.4282279
 eigenvectors
 1  -0.0000000 -0.0000000 -0.0969145  0.0000000  0.9952927
 2  -0.0000000  0.0000000  0.9952927  0.0000000  0.0969145
 3  -0.0110448  0.9385628 -0.0000000  0.3449318 -0.0000000
 4   0.1267348 -0.3408571  0.0000000  0.9315335 -0.0000000
 5  -0.9918751 -0.0540035  0.0000000  0.1151839 -0.0000000
 occupations
 0.427  0.003 -0.000 -0.005  0.000
 0.003  0.331 -0.000 -0.018  0.000
-0.000 -0.000  0.321  0.000  0.010
-0.005 -0.018  0.000  0.374 -0.000
 0.000  0.000  0.010 -0.000  0.216
atom   15   spin  2
eigenvalues:  0.1587308 0.2440365 0.2458910 0.3229892 0.3667475
 eigenvectors
 1  -0.0000000 -0.0000000 -0.1514793  0.0000000  0.9884604
 2  -0.0000000  0.0000000  0.9884604  0.0000000  0.1514793
 3  -0.0229615  0.9594056 -0.0000000  0.2810936 -0.0000000
 4   0.1456319 -0.2749587  0.0000000  0.9503626 -0.0000000
 5  -0.9890723 -0.0627580  0.0000000  0.1334066 -0.0000000
 occupations
 0.366  0.004 -0.000 -0.005  0.000
 0.004  0.252 -0.000 -0.021  0.000
-0.000 -0.000  0.242  0.000  0.013
-0.005 -0.021  0.000  0.318 -0.000
 0.000  0.000  0.013 -0.000  0.161
atom   16   Tr[ns(na)]=   3.0078913
atom   16   spin  1
eigenvalues:  0.2145831 0.3223129 0.3243326 0.3800203 0.4282264
 eigenvectors
 1  -0.0000000 -0.0000000 -0.0963460  0.0000000  0.9953479
 2  -0.0000000  0.0000000  0.9953479  0.0000000  0.0963460
 3  -0.0110430  0.9385642 -0.0000000  0.3449280 -0.0000000
 4   0.1267368 -0.3408535  0.0000000  0.9315346 -0.0000000
 5  -0.9918749 -0.0540020  0.0000000  0.1151866 -0.0000000
 occupations
 0.427  0.003 -0.000 -0.005  0.000
 0.003  0.331 -0.000 -0.018  0.000
-0.000 -0.000  0.321  0.000  0.010
-0.005 -0.018  0.000  0.374 -0.000
 0.000  0.000  0.010 -0.000  0.216
atom   16   spin  2
eigenvalues:  0.1587189 0.2440651 0.2458995 0.3229832 0.3667492
 eigenvectors
 1  -0.0000000 -0.0000000 -0.1512387  0.0000000  0.9884973
 2  -0.0000000  0.0000000  0.9884973  0.0000000  0.1512387
 3  -0.0229642  0.9593914 -0.0000000  0.2811419 -0.0000000
 4   0.1456377 -0.2750058  0.0000000  0.9503481 -0.0000000
 5  -0.9890714 -0.0627688  0.0000000  0.1334083 -0.0000000
 occupations
 0.366  0.004 -0.000 -0.005  0.000
 0.004  0.252 -0.000 -0.021  0.000
-0.000 -0.000  0.242  0.000  0.013
-0.005 -0.021  0.000  0.318 -0.000
 0.000  0.000  0.013 -0.000  0.161
atom   17   Tr[ns(na)]=   3.0078942
atom   17   spin  1
eigenvalues:  0.2145802 0.3223069 0.3243292 0.3800681 0.4282155
 eigenvectors
 1   0.0000448 -0.0000164 -0.0962887  0.0001070  0.9953534
 2  -0.0000354  0.0014845  0.9953518  0.0010699  0.0962885
 3   0.0110374 -0.9386486  0.0017524 -0.3446939  0.0001906
 4  -0.1267652  0.3406215  0.0004737 -0.9316155  0.0001573
 5  -0.9918713 -0.0539780 -0.0000809  0.1152285  0.0000235
 occupations
 0.427  0.003  0.000 -0.005 -0.000
 0.003  0.331  0.000 -0.018  0.000
 0.000  0.000  0.321 -0.000  0.010
-0.005 -0.018 -0.000  0.374 -0.000
-0.000  0.000  0.010 -0.000  0.216
atom   17   spin  2
eigenvalues:  0.1587352 0.2440367 0.2458925 0.3229816 0.3667482
 eigenvectors
 1  -0.0000044 -0.0000348 -0.1515424 -0.0000300  0.9884508
 2   0.0000237 -0.0005096 -0.9884506 -0.0000434 -0.1515424
 3  -0.0229591  0.9593704 -0.0005022  0.2812136 -0.0000348
 4  -0.1456190  0.2750787 -0.0000982 -0.9503299 -0.0000349
 5  -0.9890743 -0.0627687  0.0000031  0.1333870 -0.0000021
 occupations
 0.366  0.004  0.000 -0.005  0.000
 0.004  0.252 -0.000 -0.021  0.000
 0.000 -0.000  0.242  0.000  0.013
-0.005 -0.021  0.000  0.318  0.000
 0.000  0.000  0.013  0.000  0.161
atom   18   Tr[ns(na)]=   3.0078996
atom   18   spin  1
eigenvalues:  0.2145755 0.3223176 0.3243375 0.3800439 0.4282218
 eigenvectors
 1  -0.0000002  0.0000110 -0.0962220  0.0000450  0.9953599
 2  -0.0000252  0.0007587  0.9953595  0.0004886  0.0962219
 3  -0.0110462  0.9386311 -0.0008742  0.3447448 -0.0001105
 4   0.1267603 -0.3406702 -0.0001890  0.9315984 -0.0000566
 5  -0.9918719 -0.0539906 -0.0000396  0.1152180 -0.0000087
 occupations
 0.427  0.003  0.000 -0.005  0.000
 0.003  0.331  0.000 -0.018 -0.000
 0.000  0.000  0.321 -0.000  0.010
-0.005 -0.018 -0.000  0.374 -0.000
 0.000 -0.000  0.010 -0.000  0.216
atom   18   spin  2
eigenvalues:  0.1587249 0.2440627 0.2458948 0.3229717 0.3667492
 eigenvectors
 1  -0.0000099 -0.0000179 -0.1513858 -0.0000367  0.9884748
 2   0.0000086  0.0006631 -0.9884745  0.0003022 -0.1513857
 3  -0.0229596  0.9593683  0.0007085  0.2812203  0.0001361
 4  -0.1456267  0.2750849 -0.0001001 -0.9503269 -0.0000471
 5  -0.9890732 -0.0627723 -0.0000088  0.1333939 -0.0000074
 occupations
 0.366  0.004  0.000 -0.005  0.000
 0.004  0.252 -0.000 -0.021  0.000
 0.000 -0.000  0.242  0.000  0.013
-0.005 -0.021  0.000  0.318  0.000
 0.000  0.000  0.013  0.000  0.161
atom   19   Tr[ns(na)]=   3.0079456
atom   19   spin  1
eigenvalues:  0.2145732 0.3223199 0.3243420 0.3800442 0.4282586
 eigenvectors
 1  -0.0000000 -0.0000000 -0.0961806  0.0000000  0.9953639
 2  -0.0000000  0.0000000  0.9953639  0.0000000  0.0961806
 3  -0.0110516  0.9386477 -0.0000000  0.3447003 -0.0000000
 4   0.1265353 -0.3406374  0.0000000  0.9316410 -0.0000000
 5  -0.9919005 -0.0539129  0.0000000  0.1150075 -0.0000000
 occupations
 0.427  0.003 -0.000 -0.005  0.000
 0.003  0.331 -0.000 -0.018  0.000
-0.000 -0.000  0.321  0.000  0.010
-0.005 -0.018  0.000  0.374 -0.000
 0.000  0.000  0.010 -0.000  0.216
atom   19   spin  2
eigenvalues:  0.1587267 0.2440652 0.2458967 0.3229653 0.3667538
 eigenvectors
 1  -0.0000000 -0.0000000 -0.1514272  0.0000000  0.9884684
 2  -0.0000000  0.0000000  0.9884684  0.0000000  0.1514272
 3  -0.0229552  0.9593550 -0.0000000  0.2812669 -0.0000000
 4   0.1456246 -0.2751316  0.0000000  0.9503137 -0.0000000
 5  -0.9890736 -0.0627740  0.0000000  0.1333900 -0.0000000
 occupations
 0.366  0.004 -0.000 -0.005  0.000
 0.004  0.252 -0.000 -0.021  0.000
-0.000 -0.000  0.242  0.000  0.013
-0.005 -0.021  0.000  0.318 -0.000
 0.000  0.000  0.013 -0.000  0.161
atom   20   Tr[ns(na)]=   3.0079539
atom   20   spin  1
eigenvalues:  0.2145707 0.3223175 0.3243295 0.3800815 0.4282486
 eigenvectors
 1  -0.0000000 -0.0000000 -0.0961143  0.0000000  0.9953703
 2  -0.0000000  0.0000000  0.9953703  0.0000000  0.0961143
 3  -0.0110542  0.9386352 -0.0000000  0.3447342 -0.0000000
 4   0.1265473 -0.3406701  0.0000000  0.9316274 -0.0000000
 5  -0.9918990 -0.0539236  0.0000000  0.1150159 -0.0000000
 occupations
 0.427  0.003 -0.000 -0.005  0.000
 0.003  0.331 -0.000 -0.018  0.000
-0.000 -0.000  0.321  0.000  0.010
-0.005 -0.018  0.000  0.374 -0.000
 0.000  0.000  0.010 -0.000  0.216
atom   20   spin  2
eigenvalues:  0.1587386 0.2440412 0.2458965 0.3229767 0.3667529
 eigenvectors
 1  -0.0000000 -0.0000000 -0.1516094  0.0000000  0.9884405
 2  -0.0000000  0.0000000  0.9884405  0.0000000  0.1516094
 3  -0.0229551  0.9593523 -0.0000000  0.2812760 -0.0000000
 4   0.1456171 -0.2751412  0.0000000  0.9503120 -0.0000000
 5  -0.9890747 -0.0627731  0.0000000  0.1333822 -0.0000000
 occupations
 0.366  0.004 -0.000 -0.005  0.000
 0.004  0.252 -0.000 -0.021  0.000
-0.000 -0.000  0.242  0.000  0.013
-0.005 -0.021  0.000  0.318 -0.000
 0.000  0.000  0.013 -0.000  0.161
atom   21   Tr[ns(na)]=   3.0079433
atom   21   spin  1
eigenvalues:  0.2145796 0.3223168 0.3243370 0.3800306 0.4282579
 eigenvectors
 1   0.0000006  0.0000286 -0.0962917  0.0000383  0.9953532
 2  -0.0000337  0.0001760  0.9953531  0.0002949  0.0962917
 3  -0.0110564  0.9385643 -0.0002622  0.3449272 -0.0000656
 4   0.1265323 -0.3408623 -0.0002070  0.9315591 -0.0000461
 5  -0.9919009 -0.0539441 -0.0000574  0.1149900 -0.0000078
 occupations
 0.427  0.003  0.000 -0.005  0.000
 0.003  0.331  0.000 -0.018 -0.000
 0.000  0.000  0.321 -0.000  0.010
-0.005 -0.018 -0.000  0.374 -0.000
 0.000 -0.000  0.010 -0.000  0.216
atom   21   spin  2
eigenvalues:  0.1587204 0.2440673 0.2459010 0.3229791 0.3667537
 eigenvectors
 1  -0.0000098 -0.0000174 -0.1512836 -0.0000351  0.9884904
 2   0.0000081  0.0006974 -0.9884901  0.0003151 -0.1512835
 3  -0.0229625  0.9593759  0.0007448  0.2811938  0.0001406
 4  -0.1456098  0.2750594 -0.0001030 -0.9503368 -0.0000461
 5  -0.9890756 -0.0627667 -0.0000087  0.1333785 -0.0000076
 occupations
 0.366  0.004  0.000 -0.005  0.000
 0.004  0.252 -0.000 -0.021  0.000
 0.000 -0.000  0.242  0.000  0.013
-0.005 -0.021  0.000  0.318  0.000
 0.000  0.000  0.013  0.000  0.161
atom   22   Tr[ns(na)]=   3.0079398
atom   22   spin  1
eigenvalues:  0.2146101 0.3222936 0.3243351 0.3800352 0.4282564
 eigenvectors
 1   0.0000509 -0.0000261 -0.0967546  0.0001036  0.9953083
 2  -0.0000580  0.0025256  0.9953040  0.0014953  0.0967541
 3   0.0110562 -0.9385595  0.0028723 -0.3449282  0.0002899
 4  -0.1265352  0.3408659  0.0005115 -0.9315573  0.0001621
 5  -0.9919005 -0.0539455 -0.0000964  0.1149925  0.0000280
 occupations
 0.427  0.003  0.000 -0.005 -0.000
 0.003  0.331  0.000 -0.018  0.000
 0.000  0.000  0.321 -0.000  0.010
-0.005 -0.018 -0.000  0.374 -0.000
-0.000  0.000  0.010 -0.000  0.216
atom   22   spin  2
eigenvalues:  0.1587331 0.2440414 0.2458958 0.3229878 0.3667513
 eigenvectors
 1  -0.0000061 -0.0000199 -0.1515262 -0.0000295  0.9884532
 2   0.0000046  0.0002770 -0.9884532  0.0001933 -0.1515262
 3  -0.0229620  0.9593817  0.0003122  0.2811750  0.0000755
 4  -0.1456043  0.2750410 -0.0001034 -0.9503430 -0.0000396
 5  -0.9890764 -0.0627621  0.0000043  0.1333746 -0.0000027
 occupations
 0.366  0.004  0.000 -0.005  0.000
 0.004  0.252 -0.000 -0.021  0.000
 0.000 -0.000  0.242  0.000  0.013
-0.005 -0.021  0.000  0.318  0.000
 0.000  0.000  0.013  0.000  0.161
atom   23   Tr[ns(na)]=   3.0079433
atom   23   spin  1
eigenvalues:  0.2145796 0.3223168 0.3243370 0.3800306 0.4282579
 eigenvectors
 1  -0.0000006 -0.0000286 -0.0962917 -0.0000383  0.9953532
 2  -0.0000337  0.0001760 -0.9953531  0.0002949 -0.0962917
 3   0.0110564 -0.9385643 -0.0002622 -0.3449272 -0.0000656
 4   0.1265323 -0.3408623  0.0002070  0.9315591  0.0000461
 5  -0.9919009 -0.0539441  0.0000574  0.1149900  0.0000078
 occupations
 0.427  0.003 -0.000 -0.005 -0.000
 0.003  0.331 -0.000 -0.018  0.000
-0.000 -0.000  0.321  0.000  0.010
-0.005 -0.018  0.000  0.374  0.000
-0.000  0.000  0.010  0.000  0.216
atom   23   spin  2
eigenvalues:  0.1587204 0.2440673 0.2459010 0.3229791 0.3667537
 eigenvectors
 1   0.0000098  0.0000174 -0.1512836  0.0000351  0.9884904
 2   0.0000081  0.0006974  0.9884901  0.0003151  0.1512835
 3   0.0229625 -0.9593759  0.0007448 -0.2811938  0.0001406
 4  -0.1456098  0.2750594  0.0001030 -0.9503368  0.0000461
 5  -0.9890756 -0.0627667  0.0000087  0.1333785  0.0000076
 occupations
 0.366  0.004 -0.000 -0.005 -0.000
 0.004  0.252  0.000 -0.021 -0.000
-0.000  0.000  0.242 -0.000  0.013
-0.005 -0.021 -0.000  0.318 -0.000
-0.000 -0.000  0.013 -0.000  0.161
atom   24   Tr[ns(na)]=   3.0079398
atom   24   spin  1
eigenvalues:  0.2146101 0.3222936 0.3243351 0.3800352 0.4282564
 eigenvectors
 1  -0.0000509  0.0000261 -0.0967546 -0.0001036  0.9953083
 2  -0.0000580  0.0025256 -0.9953040  0.0014953 -0.0967541
 3  -0.0110562  0.9385595  0.0028723  0.3449282  0.0002899
 4  -0.1265352  0.3408659 -0.0005115 -0.9315573 -0.0001621
 5  -0.9919005 -0.0539455  0.0000964  0.1149925 -0.0000280
 occupations
 0.427  0.003 -0.000 -0.005  0.000
 0.003  0.331 -0.000 -0.018 -0.000
-0.000 -0.000  0.321  0.000  0.010
-0.005 -0.018  0.000  0.374  0.000
 0.000 -0.000  0.010  0.000  0.216
atom   24   spin  2
eigenvalues:  0.1587331 0.2440414 0.2458958 0.3229878 0.3667513
 eigenvectors
 1   0.0000061  0.0000199 -0.1515262  0.0000295  0.9884532
 2   0.0000046  0.0002770  0.9884532  0.0001933  0.1515262
 3   0.0229620 -0.9593817  0.0003122 -0.2811750  0.0000755
 4  -0.1456043  0.2750410  0.0001034 -0.9503430  0.0000396
 5  -0.9890764 -0.0627621 -0.0000043  0.1333746  0.0000027
 occupations
 0.366  0.004 -0.000 -0.005 -0.000
 0.004  0.252  0.000 -0.021 -0.000
-0.000  0.000  0.242 -0.000  0.013
-0.005 -0.021 -0.000  0.318 -0.000
-0.000 -0.000  0.013 -0.000  0.161
nsum =  72.1900282
 exit write_ns

     negative rho (up, down):  0.915E-02 0.100E-01

     total cpu time spent up to now is     86.15 secs

     total energy              =   -5372.83840806 Ry
     Harris-Foulkes estimate   =   -5381.04367240 Ry
     estimated scf accuracy    <      51.69603829 Ry

     total magnetization       =     0.00 Bohr mag/cell
     absolute magnetization    =    11.33 Bohr mag/cell

     iteration #  2     ecut=    30.00 Ry     beta=0.30
     Davidson diagonalization with overlap
     ethr =  7.69E-03,  avg # of iterations =  1.4

     negative rho (up, down):  0.127E-01 0.138E-01

     total cpu time spent up to now is    139.84 secs

     total energy              =   -5370.27067738 Ry
     Harris-Foulkes estimate   =   -5375.03105548 Ry
     estimated scf accuracy    <      14.09575362 Ry

     total magnetization       =    -0.00 Bohr mag/cell
     absolute magnetization    =     4.64 Bohr mag/cell

     iteration #  3     ecut=    30.00 Ry     beta=0.30
     Davidson diagonalization with overlap
     ethr =  2.10E-03,  avg # of iterations =  3.1

     negative rho (up, down):  0.112E-01 0.124E-01

     total cpu time spent up to now is    218.91 secs

     total energy              =   -5373.32920384 Ry
     Harris-Foulkes estimate   =   -5374.65172740 Ry
     estimated scf accuracy    <      10.38955525 Ry

     total magnetization       =     0.00 Bohr mag/cell
     absolute magnetization    =     4.78 Bohr mag/cell

     iteration #  4     ecut=    30.00 Ry     beta=0.30
     Davidson diagonalization with overlap
     ethr =  1.55E-03,  avg # of iterations =  1.1

     negative rho (up, down):  0.107E-01 0.121E-01

     total cpu time spent up to now is    271.07 secs

     total energy              =   -5373.99544195 Ry
     Harris-Foulkes estimate   =   -5373.89704438 Ry
     estimated scf accuracy    <       1.35724303 Ry

     total magnetization       =     0.00 Bohr mag/cell
     absolute magnetization    =     4.31 Bohr mag/cell

     iteration #  5     ecut=    30.00 Ry     beta=0.30
     Davidson diagonalization with overlap
     ethr =  2.02E-04,  avg # of iterations =  3.6

     negative rho (up, down):  0.117E-01 0.130E-01

     total cpu time spent up to now is    350.99 secs

     total energy              =   -5374.05069569 Ry
     Harris-Foulkes estimate   =   -5374.23185110 Ry
     estimated scf accuracy    <       0.57855913 Ry

     total magnetization       =    -0.00 Bohr mag/cell
     absolute magnetization    =     3.13 Bohr mag/cell

     iteration #  6     ecut=    30.00 Ry     beta=0.30
     Davidson diagonalization with overlap
     ethr =  8.61E-05,  avg # of iterations =  3.5

     negative rho (up, down):  0.115E-01 0.124E-01

     total cpu time spent up to now is    438.29 secs

     total energy              =   -5374.15381949 Ry
     Harris-Foulkes estimate   =   -5374.27904528 Ry
     estimated scf accuracy    <       0.77735100 Ry

     total magnetization       =     0.00 Bohr mag/cell
     absolute magnetization    =     2.62 Bohr mag/cell

     iteration #  7     ecut=    30.00 Ry     beta=0.30
     Davidson diagonalization with overlap
     ethr =  8.61E-05,  avg # of iterations =  2.1

     negative rho (up, down):  0.115E-01 0.123E-01

     total cpu time spent up to now is    497.46 secs

     total energy              =   -5374.19287232 Ry
     Harris-Foulkes estimate   =   -5374.20099915 Ry
     estimated scf accuracy    <       0.09910569 Ry

     total magnetization       =     0.00 Bohr mag/cell
     absolute magnetization    =     1.51 Bohr mag/cell

     iteration #  8     ecut=    30.00 Ry     beta=0.30
     Davidson diagonalization with overlap
     ethr =  1.47E-05,  avg # of iterations =  2.4

     negative rho (up, down):  0.116E-01 0.122E-01

     total cpu time spent up to now is    560.40 secs

     total energy              =   -5374.19512527 Ry
     Harris-Foulkes estimate   =   -5374.19866543 Ry
     estimated scf accuracy    <       0.03364897 Ry

     total magnetization       =    -0.00 Bohr mag/cell
     absolute magnetization    =     1.57 Bohr mag/cell

     iteration #  9     ecut=    30.00 Ry     beta=0.30
     Davidson diagonalization with overlap
     ethr =  5.01E-06,  avg # of iterations =  2.0

     negative rho (up, down):  0.117E-01 0.120E-01

     total cpu time spent up to now is    618.37 secs

     total energy              =   -5374.19643330 Ry
     Harris-Foulkes estimate   =   -5374.19724098 Ry
     estimated scf accuracy    <       0.00437481 Ry

     total magnetization       =     0.00 Bohr mag/cell
     absolute magnetization    =     1.19 Bohr mag/cell

     iteration # 10     ecut=    30.00 Ry     beta=0.30
     Davidson diagonalization with overlap
     ethr =  6.51E-07,  avg # of iterations =  3.4

     negative rho (up, down):  0.117E-01 0.120E-01

     total cpu time spent up to now is    697.45 secs

     total energy              =   -5374.19748825 Ry
     Harris-Foulkes estimate   =   -5374.19752874 Ry
     estimated scf accuracy    <       0.00078995 Ry

     total magnetization       =     0.00 Bohr mag/cell
     absolute magnetization    =     0.78 Bohr mag/cell

     iteration # 11     ecut=    30.00 Ry     beta=0.30
     Davidson diagonalization with overlap
     ethr =  1.18E-07,  avg # of iterations =  2.9

     negative rho (up, down):  0.118E-01 0.120E-01

     total cpu time spent up to now is    765.14 secs

     total energy              =   -5374.19763772 Ry
     Harris-Foulkes estimate   =   -5374.19764290 Ry
     estimated scf accuracy    <       0.00034417 Ry

     total magnetization       =     0.00 Bohr mag/cell
     absolute magnetization    =     0.66 Bohr mag/cell

     iteration # 12     ecut=    30.00 Ry     beta=0.30
     Davidson diagonalization with overlap
     ethr =  5.12E-08,  avg # of iterations =  2.9

     negative rho (up, down):  0.118E-01 0.119E-01

     total cpu time spent up to now is    842.72 secs

     total energy              =   -5374.19775455 Ry
     Harris-Foulkes estimate   =   -5374.19775165 Ry
     estimated scf accuracy    <       0.00014905 Ry

     total magnetization       =     0.00 Bohr mag/cell
     absolute magnetization    =     0.37 Bohr mag/cell

     iteration # 13     ecut=    30.00 Ry     beta=0.30
     Davidson diagonalization with overlap
     ethr =  2.22E-08,  avg # of iterations =  2.0

     negative rho (up, down):  0.118E-01 0.119E-01

     total cpu time spent up to now is    904.73 secs

     total energy              =   -5374.19778462 Ry
     Harris-Foulkes estimate   =   -5374.19777315 Ry
     estimated scf accuracy    <       0.00001478 Ry

     total magnetization       =    -0.00 Bohr mag/cell
     absolute magnetization    =     0.29 Bohr mag/cell

     iteration # 14     ecut=    30.00 Ry     beta=0.30
     Davidson diagonalization with overlap
     ethr =  2.20E-09,  avg # of iterations =  3.2

     negative rho (up, down):  0.118E-01 0.119E-01

     total cpu time spent up to now is    997.13 secs

     total energy              =   -5374.19781991 Ry
     Harris-Foulkes estimate   =   -5374.19781531 Ry
     estimated scf accuracy    <       0.00000879 Ry

     total magnetization       =    -0.00 Bohr mag/cell
     absolute magnetization    =     0.11 Bohr mag/cell

     iteration # 15     ecut=    30.00 Ry     beta=0.30
     Davidson diagonalization with overlap
     ethr =  1.31E-09,  avg # of iterations =  3.0

     negative rho (up, down):  0.119E-01 0.119E-01

     total cpu time spent up to now is   1065.13 secs

     total energy              =   -5374.19782369 Ry
     Harris-Foulkes estimate   =   -5374.19782132 Ry
     estimated scf accuracy    <       0.00000222 Ry

     total magnetization       =    -0.00 Bohr mag/cell
     absolute magnetization    =     0.08 Bohr mag/cell

     iteration # 16     ecut=    30.00 Ry     beta=0.30
     Davidson diagonalization with overlap
     ethr =  3.31E-10,  avg # of iterations =  3.0

     negative rho (up, down):  0.119E-01 0.119E-01

     total cpu time spent up to now is   1153.25 secs

     total energy              =   -5374.19782784 Ry
     Harris-Foulkes estimate   =   -5374.19782663 Ry
     estimated scf accuracy    <       0.00000099 Ry

     total magnetization       =    -0.00 Bohr mag/cell
[...]
     8.1613   8.1613   8.1613   8.1613   8.2333   8.2333   8.2333   8.2333
     8.3330   8.3330   8.3330   8.3330   8.4213   8.4213   8.4213   8.4386
     8.4386   8.4386   8.4386

          k =-0.5000 0.0000 0.0000 ( 20098 PWs)   bands (ev):

   -59.8615 -59.8615 -59.8614 -59.8613 -59.8558 -59.8558 -59.8558 -59.8558
   -59.8557 -59.8557 -59.8556 -59.8556 -59.8491 -59.8491 -59.8491 -59.8491
   -59.8491 -59.8491 -59.8490 -59.8490 -59.8484 -59.8483 -59.8482 -59.8482
   -33.8367 -33.8366 -33.8336 -33.8335 -33.8300 -33.8300 -33.8299 -33.8299
   -33.8267 -33.8267 -33.8266 -33.8266 -33.8261 -33.8260 -33.8219 -33.8219
   -33.8218 -33.8218 -33.8210 -33.8209 -33.8173 -33.8173 -33.8172 -33.8172
   -33.7941 -33.7941 -33.7941 -33.7941 -33.7939 -33.7939 -33.7939 -33.7939
   -33.7864 -33.7864 -33.7862 -33.7862 -33.7615 -33.7615 -33.7615 -33.7615
   -33.7612 -33.7612 -33.7612 -33.7612 -33.7010 -33.7010 -33.7007 -33.7007
   -33.6959 -33.6959 -33.6959 -33.6959 -33.6959 -33.6959 -33.6959 -33.6959
   -33.6897 -33.6897 -33.6896 -33.6896 -33.6765 -33.6765 -33.6765 -33.6765
   -33.6765 -33.6765 -33.6765 -33.6765 -33.6608 -33.6608 -33.6607 -33.6607
   -13.3897 -13.3895 -13.2899 -13.2897 -12.7943 -12.7943 -12.7942 -12.7942
   -12.7078 -12.7078 -12.7076 -12.7076 -12.2629 -12.2628 -12.1861 -12.1859
   -12.1220 -12.1220 -12.1220 -12.1220 -12.1002 -12.1002 -12.1001 -12.1001
   -12.0922 -12.0921 -12.0625 -12.0625 -12.0349 -12.0349 -12.0348 -12.0348
   -11.9787 -11.9787 -11.9786 -11.9786 -11.7437 -11.7434 -11.7149 -11.7146
   -11.6895 -11.6895 -11.6893 -11.6893 -11.6302 -11.6302 -11.6299 -11.6299
   -11.6088 -11.6088 -11.6086 -11.6086 -11.5660 -11.5658 -11.5167 -11.5167
   -11.5165 -11.5165 -11.5042 -11.5039  -0.5988  -0.5988  -0.5986  -0.5986
    -0.5911  -0.5911  -0.5910  -0.5910  -0.2177  -0.2176  -0.1371  -0.1370
    -0.1179  -0.1178  -0.0475  -0.0474  -0.0452  -0.0451   0.0046   0.0046
     0.0047   0.0047   0.1164   0.1164   0.1164   0.1164   0.2265   0.2265
     0.2266   0.2266   0.3189   0.3189   0.3189   0.3189   0.4230   0.4230
     0.4684   0.4685   0.4874   0.4874   0.4875   0.4875   0.6163   0.6163
     0.6467   0.6467   0.6467   0.6467   0.8822   0.8822   0.8823   0.8823
     0.9903   0.9903   0.9904   0.9904   1.2503   1.2503   1.2504   1.2504
     1.3705   1.3705   1.4047   1.4047   1.4047   1.4047   1.4563   1.4564
     1.5346   1.5347   1.5566   1.5566   1.5567   1.5567   1.5594   1.5595
     1.6520   1.6520   1.6521   1.6521   1.9700   1.9700   1.9713   1.9713
     1.9715   1.9715   2.0058   2.0058   2.0610   2.0610   2.0611   2.0611
     2.0801   2.0801   2.0802   2.0802   2.2012   2.2012   2.2012   2.2012
     2.3125   2.3125   2.3126   2.3126   2.3356   2.3357   2.4507   2.4507
     2.4507   2.4507   2.5143   2.5144   2.5275   2.5276   2.5408   2.5408
     2.5998   2.5999   2.6254   2.6255   2.6754   2.6754   2.6754   2.6754
     2.7001   2.7002   2.7480   2.7480   2.7480   2.7480   2.7695   2.7695
     2.7696   2.7696   2.9903   2.9904   3.0379   3.0380   3.3116   3.3117
     3.3695   3.3695   3.4053   3.4053   3.4053   3.4053   3.5108   3.5108
     3.5108   3.5108   3.5279   3.5281   3.5400   3.5401   3.5503   3.5503
     3.5503   3.5503   3.6291   3.6292   3.7777   3.7778   3.8750   3.8750
     3.8750   3.8750   3.9013   3.9013   3.9014   3.9014   4.1225   4.1225
     4.1873   4.1873   4.1874   4.1874   4.2693   4.2693   4.2693   4.2693
     6.4628   6.4628   6.6028   6.6028   6.8869   6.8869   6.8869   6.8869
     6.8903   6.8903   6.8903   6.8903   7.4141   7.4141   7.4141   7.4141
     7.5730   7.5730   7.5730   7.5730   7.5908   7.5908   7.5908   7.5908
     7.7399   7.7400   7.7473   7.7473   7.8232   7.8232   7.8295   7.8295
     7.8424   7.8424   7.8424   7.8424   7.8523   7.8523   7.8523   7.8523
     7.8937   7.8937   7.9318   7.9318   8.0391   8.0391   8.0391   8.0391
     8.0828   8.0828   8.0829   8.0829   8.1563   8.1563   8.1564   8.1564
     8.3435   8.3435   8.3435   8.3435   8.4014   8.4014   8.4014   8.4014
     8.7688   8.7688   8.8037

          k =-0.5000 0.0000-0.6582 ( 20124 PWs)   bands (ev):

   -59.8614 -59.8614 -59.8614 -59.8614 -59.8557 -59.8557 -59.8557 -59.8557
   -59.8557 -59.8557 -59.8557 -59.8557 -59.8491 -59.8491 -59.8491 -59.8491
   -59.8491 -59.8491 -59.8490 -59.8490 -59.8483 -59.8483 -59.8482 -59.8482
   -33.8352 -33.8352 -33.8351 -33.8351 -33.8284 -33.8284 -33.8284 -33.8284
   -33.8283 -33.8283 -33.8283 -33.8283 -33.8236 -33.8236 -33.8235 -33.8235
   -33.8196 -33.8196 -33.8196 -33.8196 -33.8195 -33.8195 -33.8195 -33.8195
   -33.7940 -33.7940 -33.7940 -33.7940 -33.7940 -33.7940 -33.7940 -33.7940
   -33.7863 -33.7863 -33.7863 -33.7863 -33.7614 -33.7614 -33.7614 -33.7614
   -33.7614 -33.7614 -33.7613 -33.7613 -33.7009 -33.7009 -33.7008 -33.7008
   -33.6959 -33.6959 -33.6959 -33.6959 -33.6959 -33.6959 -33.6959 -33.6959
   -33.6897 -33.6897 -33.6896 -33.6896 -33.6765 -33.6765 -33.6765 -33.6765
   -33.6765 -33.6765 -33.6765 -33.6765 -33.6608 -33.6608 -33.6607 -33.6607
   -13.3395 -13.3395 -13.3393 -13.3393 -12.7501 -12.7501 -12.7501 -12.7501
   -12.7499 -12.7499 -12.7499 -12.7499 -12.2214 -12.2214 -12.2213 -12.2213
   -12.1090 -12.1090 -12.1090 -12.1090 -12.1089 -12.1089 -12.1089 -12.1089
   -12.0796 -12.0796 -12.0796 -12.0796 -12.0078 -12.0078 -12.0078 -12.0078
   -12.0078 -12.0078 -12.0078 -12.0078 -11.7285 -11.7285 -11.7282 -11.7282
   -11.6557 -11.6557 -11.6557 -11.6557 -11.6554 -11.6554 -11.6554 -11.6554
   -11.5708 -11.5708 -11.5708 -11.5708 -11.5706 -11.5706 -11.5706 -11.5706
   -11.5386 -11.5386 -11.5383 -11.5383  -0.5978  -0.5978  -0.5978  -0.5978
    -0.5976  -0.5976  -0.5976  -0.5976  -0.1615  -0.1615  -0.1614  -0.1614
    -0.0832  -0.0832  -0.0830  -0.0830   0.0828   0.0828   0.0828   0.0828
     0.0828   0.0828   0.0828   0.0828   0.2519   0.2519   0.2520   0.2520
     0.3523   0.3523   0.3523   0.3523   0.3524   0.3524   0.3524   0.3524
     0.6391   0.6391   0.6391   0.6391   0.6392   0.6392   0.6392   0.6392
     0.7382   0.7382   0.7382   0.7382   0.9706   0.9706   0.9706   0.9706
     0.9706   0.9706   0.9706   0.9706   1.0048   1.0048   1.0048   1.0048
     1.1420   1.1420   1.1420   1.1420   1.1420   1.1420   1.1420   1.1420
     1.6781   1.6781   1.6781   1.6781   1.6860   1.6860   1.6860   1.6860
     1.6860   1.6860   1.6860   1.6860   1.7245   1.7245   1.7245   1.7245
     1.8464   1.8464   1.8465   1.8465   1.8465   1.8465   1.8465   1.8465
     2.1503   2.1503   2.1503   2.1503   2.1504   2.1504   2.1504   2.1504
     2.1951   2.1951   2.1951   2.1951   2.1952   2.1952   2.1952   2.1952
     2.5441   2.5441   2.5442   2.5442   2.5913   2.5913   2.5914   2.5914
     2.6556   2.6556   2.6556   2.6556   2.7394   2.7394   2.7394   2.7394
     2.7395   2.7395   2.7395   2.7395   2.8293   2.8293   2.8294   2.8294
     3.3105   3.3105   3.3105   3.3105   3.3106   3.3106   3.3106   3.3106
     3.3438   3.3438   3.3439   3.3439   3.3534   3.3534   3.3535   3.3535
     3.6108   3.6108   3.6108   3.6108   3.6108   3.6108   3.6108   3.6108
     3.6123   3.6123   3.6124   3.6124   3.8769   3.8769   3.8769   3.8769
     3.9224   3.9224   3.9224   3.9224   3.9224   3.9224   3.9224   3.9224
     4.0275   4.0275   4.0275   4.0275   4.0275   4.0275   4.0275   4.0275
     6.5323   6.5323   6.5323   6.5323   6.8876   6.8876   6.8876   6.8876
     6.8876   6.8876   6.8876   6.8876   7.4981   7.4981   7.4981   7.4981
     7.4981   7.4981   7.4981   7.4981   7.7242   7.7242   7.7242   7.7242
     7.7243   7.7243   7.7243   7.7243   7.7893   7.7893   7.7894   7.7894
     7.8221   7.8221   7.8221   7.8221   7.9021   7.9021   7.9021   7.9021
     7.9738   7.9738   7.9738   7.9738   7.9738   7.9738   7.9738   7.9738
     8.1650   8.1650   8.1650   8.1650   8.1650   8.1650   8.1650   8.1650
     8.3936   8.3936   8.3936   8.3936   8.3936   8.3936   8.3936   8.3936
     8.7845   8.7845   8.7846

          k =-0.5000-0.5390 0.0000 ( 20140 PWs)   bands (ev):

   -59.8598 -59.8598 -59.8597 -59.8597 -59.8596 -59.8596 -59.8596 -59.8596
   -59.8527 -59.8527 -59.8526 -59.8525 -59.8507 -59.8507 -59.8506 -59.8506
   -59.8484 -59.8484 -59.8483 -59.8483 -59.8483 -59.8483 -59.8483 -59.8483
   -33.8347 -33.8347 -33.8346 -33.8346 -33.8316 -33.8316 -33.8315 -33.8315
   -33.8247 -33.8247 -33.8246 -33.8246 -33.8244 -33.8244 -33.8224 -33.8224
   -33.8204 -33.8203 -33.8197 -33.8197 -33.8197 -33.8197 -33.8185 -33.8185
   -33.8034 -33.8034 -33.8032 -33.8032 -33.7873 -33.7873 -33.7872 -33.7872
   -33.7871 -33.7871 -33.7871 -33.7871 -33.7745 -33.7745 -33.7743 -33.7743
   -33.7273 -33.7273 -33.7273 -33.7273 -33.7270 -33.7270 -33.7270 -33.7270
   -33.7028 -33.7028 -33.7028 -33.7027 -33.6829 -33.6829 -33.6829 -33.6829
   -33.6829 -33.6829 -33.6828 -33.6828 -33.6787 -33.6787 -33.6787 -33.6787
   -33.6703 -33.6703 -33.6703 -33.6703 -33.6703 -33.6703 -33.6703 -33.6703
   -13.2155 -13.2155 -13.2154 -13.2154 -13.1182 -13.1182 -13.1180 -13.1180
   -12.4398 -12.4398 -12.3641 -12.3641 -12.2618 -12.2618 -12.2305 -12.2305
   -12.1817 -12.1817 -12.1816 -12.1816 -12.1184 -12.1184 -12.1182 -12.1182
   -12.0885 -12.0885 -12.0885 -12.0885 -12.0538 -12.0538 -12.0538 -12.0538
   -11.9775 -11.9775 -11.9368 -11.9368 -11.7256 -11.7256 -11.7254 -11.7254
   -11.6899 -11.6899 -11.6897 -11.6897 -11.6733 -11.6733 -11.6243 -11.6243
   -11.5814 -11.5814 -11.5771 -11.5771 -11.5769 -11.5769 -11.5406 -11.5406
   -11.5052 -11.5052 -11.5049 -11.5049  -0.4616  -0.4616  -0.4615  -0.4615
    -0.3927  -0.3927  -0.3925  -0.3925  -0.3048  -0.3048  -0.2930  -0.2930
    -0.1756  -0.1756  -0.1655  -0.1655  -0.0786  -0.0786  -0.0786  -0.0786
    -0.0251  -0.0251  -0.0251  -0.0251   0.0693   0.0693   0.0693   0.0693
     0.0786   0.0786   0.1880   0.1880   0.4736   0.4736   0.4736   0.4736
     0.5230   0.5230   0.5230   0.5230   0.5567   0.5568   0.6600   0.6600
     0.6645   0.6645   0.6855   0.6855   0.6856   0.6856   1.1250   1.1250
     1.1251   1.1251   1.1488   1.1488   1.1907   1.1907   1.3012   1.3012
     1.3442   1.3442   1.3442   1.3442   1.4076   1.4076   1.4077   1.4077
     1.4876   1.4876   1.4892   1.4892   1.4917   1.4917   1.4917   1.4917
     1.5654   1.5655   1.6003   1.6003   1.6003   1.6003   1.6006   1.6006
     1.9969   1.9969   2.0994   2.0994   2.0994   2.0994   2.1648   2.1648
     2.2769   2.2769   2.2770   2.2770   2.3338   2.3338   2.3339   2.3339
     2.3588   2.3589   2.3733   2.3733   2.3734   2.3734   2.4507   2.4508
     2.4511   2.4511   2.4512   2.4512   2.5107   2.5107   2.5107   2.5107
     2.6345   2.6345   2.6614   2.6614   2.6614   2.6614   2.7105   2.7105
     2.8034   2.8034   2.8035   2.8035   2.8679   2.8679   2.9193   2.9193
     2.9193   2.9193   2.9947   2.9947   2.9948   2.9948   3.0607   3.0607
     3.1523   3.1523   3.1523   3.1523   3.3184   3.3184   3.3185   3.3185
     3.5519   3.5519   3.6043   3.6043   3.6043   3.6043   3.6321   3.6321
     3.7881   3.7881   3.7882   3.7882   3.7914   3.7914   3.7914   3.7914
     3.7963   3.7963   3.9052   3.9052   3.9876   3.9876   3.9877   3.9877
     4.1441   4.1441   4.1441   4.1441   4.2632   4.2632   4.3083   4.3083
     6.6455   6.6455   6.6456   6.6456   6.7024   6.7024   6.7024   6.7024
     6.9463   6.9463   6.9500   6.9500   7.4102   7.4102   7.5094   7.5094
     7.6286   7.6286   7.6327   7.6327   7.6327   7.6327   7.7175   7.7175
     7.7175   7.7175   7.7795   7.7795   7.7795   7.7795   7.8389   7.8389
     7.8910   7.8910   7.8910   7.8910   7.8961   7.8961   7.9466   7.9466
     7.9466   7.9466   7.9819   7.9819   7.9819   7.9819   8.0390   8.0390
     8.1113   8.1113   8.1114   8.1114   8.2314   8.2314   8.2314   8.2314
     8.2522   8.2522   8.3374   8.3374   8.3374   8.3374   8.3947   8.3947
     8.4448   8.4448   8.4448

          k =-0.5000-0.5390-0.6582 ( 20080 PWs)   bands (ev):

   -59.8597 -59.8597 -59.8597 -59.8597 -59.8596 -59.8596 -59.8596 -59.8596
   -59.8526 -59.8526 -59.8526 -59.8526 -59.8506 -59.8506 -59.8506 -59.8506
   -59.8484 -59.8484 -59.8484 -59.8484 -59.8483 -59.8483 -59.8483 -59.8483
   -33.8332 -33.8332 -33.8332 -33.8332 -33.8331 -33.8331 -33.8331 -33.8331
   -33.8224 -33.8224 -33.8224 -33.8223 -33.8222 -33.8222 -33.8222 -33.8222
   -33.8221 -33.8221 -33.8221 -33.8221 -33.8205 -33.8205 -33.8205 -33.8204
   -33.8033 -33.8033 -33.8033 -33.8033 -33.7872 -33.7872 -33.7872 -33.7872
   -33.7872 -33.7872 -33.7872 -33.7872 -33.7744 -33.7744 -33.7744 -33.7744
   -33.7271 -33.7271 -33.7271 -33.7271 -33.7271 -33.7271 -33.7271 -33.7271
   -33.7028 -33.7028 -33.7028 -33.7028 -33.6829 -33.6829 -33.6829 -33.6829
   -33.6829 -33.6829 -33.6829 -33.6829 -33.6787 -33.6787 -33.6787 -33.6787
   -33.6703 -33.6703 -33.6703 -33.6703 -33.6703 -33.6703 -33.6703 -33.6703
   -13.1664 -13.1664 -13.1664 -13.1664 -13.1663 -13.1663 -13.1662 -13.1662
   -12.4000 -12.4000 -12.4000 -12.4000 -12.2450 -12.2450 -12.2450 -12.2450
   -12.1444 -12.1444 -12.1444 -12.1444 -12.1443 -12.1443 -12.1443 -12.1443
   -12.0758 -12.0758 -12.0758 -12.0758 -12.0758 -12.0758 -12.0758 -12.0758
   -11.9577 -11.9577 -11.9577 -11.9577 -11.7064 -11.7064 -11.7064 -11.7064
   -11.7062 -11.7062 -11.7062 -11.7062 -11.6091 -11.6091 -11.6091 -11.6091
   -11.6051 -11.6051 -11.6050 -11.6050 -11.5455 -11.5455 -11.5455 -11.5455
   -11.5453 -11.5453 -11.5453 -11.5453  -0.4221  -0.4221  -0.4221  -0.4221
    -0.4220  -0.4220  -0.4220  -0.4220  -0.2960  -0.2960  -0.2960  -0.2959
    -0.1709  -0.1709  -0.1709  -0.1709  -0.0480  -0.0480  -0.0480  -0.0480
    -0.0479  -0.0479  -0.0479  -0.0479   0.1315   0.1315   0.1315   0.1315
     0.3700   0.3700   0.3700   0.3700   0.3700   0.3700   0.3700   0.3700
     0.7556   0.7556   0.7556   0.7556   0.7556   0.7556   0.7556   0.7556
     0.8728   0.8728   0.8728   0.8728   0.8866   0.8866   0.8867   0.8867
     1.0295   1.0295   1.0295   1.0295   1.0296   1.0296   1.0296   1.0296
     1.0952   1.0952   1.0952   1.0952   1.3075   1.3075   1.3075   1.3075
     1.3075   1.3075   1.3075   1.3075   1.3801   1.3801   1.3801   1.3801
     1.7130   1.7130   1.7130   1.7130   1.7130   1.7130   1.7130   1.7130
     1.7818   1.7818   1.7818   1.7818   1.8708   1.8708   1.8709   1.8709
     2.1801   2.1801   2.1801   2.1801   2.2982   2.2982   2.2982   2.2982
     2.2982   2.2982   2.2982   2.2982   2.4809   2.4809   2.4809   2.4809
     2.4809   2.4809   2.4809   2.4809   2.6536   2.6536   2.6536   2.6536
     2.7118   2.7118   2.7118   2.7118   2.7119   2.7119   2.7119   2.7119
     2.8336   2.8336   2.8336   2.8336   2.8337   2.8337   2.8337   2.8337
     3.1006   3.1006   3.1006   3.1006   3.1006   3.1006   3.1006   3.1006
     3.3664   3.3664   3.3664   3.3664   3.5093   3.5093   3.5093   3.5093
     3.6135   3.6135   3.6135   3.6135   3.6135   3.6135   3.6135   3.6135
     3.7521   3.7521   3.7521   3.7521   3.7522   3.7522   3.7522   3.7522
     3.9436   3.9436   3.9436   3.9436   3.9437   3.9437   3.9437   3.9437
     3.9833   3.9833   3.9833   3.9833   4.0008   4.0008   4.0008   4.0008
     6.6794   6.6794   6.6794   6.6794   6.6794   6.6794   6.6794   6.6794
     6.9476   6.9476   6.9476   6.9476   7.4597   7.4597   7.4597   7.4597
     7.7375   7.7375   7.7375   7.7375   7.7375   7.7375   7.7375   7.7375
     7.7867   7.7867   7.7867   7.7867   7.7867   7.7867   7.7867   7.7867
     7.8020   7.8020   7.8020   7.8020   7.9545   7.9546   7.9546   7.9546
     7.9769   7.9769   7.9769   7.9769   7.9769   7.9769   7.9769   7.9769
     8.1787   8.1787   8.1787   8.1787   8.1787   8.1787   8.1787   8.1787
     8.3253   8.3253   8.3253   8.3253   8.3952   8.3952   8.3952   8.3952
     8.3952   8.3952   8.3952

     the Fermi energy is     5.6318 ev

!    total energy              =   -5374.19782920 Ry
     Harris-Foulkes estimate   =   -5374.19782894 Ry
     estimated scf accuracy    <          8.0E-09 Ry

     The total energy is the sum of the following terms:

     one-electron contribution =   -3516.72401719 Ry
     hartree contribution      =    1987.92801028 Ry
     xc contribution           =    -853.36389062 Ry
     ewald contribution        =   -2998.67033555 Ry
     Hubbard energy            =       6.63240388 Ry
     smearing contrib. (-TS)   =      -0.00000000 Ry

     total magnetization       =     0.00 Bohr mag/cell
     absolute magnetization    =     0.00 Bohr mag/cell

     convergence has been achieved in  19 iterations
 forces --- starting time for forces:
     forces       :      0.00s CPU      0.00s WALL (       1 calls)

     Forces acting on atoms (Ry/au):

 forces --- nonlocal contribution:
     forces       :      4.81s CPU      4.82s WALL (       2 calls)
 forces --- local contribution:
     forces       :      4.83s CPU      4.84s WALL (       3 calls)

     negative rho (up, down):  0.119E-01 0.119E-01
 forces --- NLCC contribution:
     forces       :      4.98s CPU      4.99s WALL (       4 calls)
 forces --- entering force_hub:
     forces       :      4.98s CPU      4.99s WALL (       5 calls)
           1  forces --- i/o, init_us_2, calbec, s_psi:
     forces       :      5.10s CPU      5.12s WALL (       6 calls)
           1  forces --- dn/dtau:
     forces       :     59.97s CPU     60.00s WALL (       7 calls)
           2  forces --- i/o, init_us_2, calbec, s_psi:
     forces       :     60.09s CPU     60.12s WALL (       8 calls)
           2  forces --- dn/dtau:
     forces       :    114.56s CPU    114.59s WALL (       9 calls)
           3  forces --- i/o, init_us_2, calbec, s_psi:
     forces       :    114.68s CPU    114.72s WALL (      10 calls)
           3  forces --- dn/dtau:
     forces       :    168.91s CPU    168.96s WALL (      11 calls)
           4  forces --- i/o, init_us_2, calbec, s_psi:
     forces       :    169.03s CPU    169.08s WALL (      12 calls)
           4  forces --- dn/dtau:
     forces       :    223.16s CPU    223.23s WALL (      13 calls)
           5  forces --- i/o, init_us_2, calbec, s_psi:
     forces       :    223.28s CPU    223.35s WALL (      14 calls)
           5  forces --- dn/dtau:
     forces       :    276.89s CPU    276.98s WALL (      15 calls)
           6  forces --- i/o, init_us_2, calbec, s_psi:
     forces       :    277.00s CPU    277.10s WALL (      16 calls)
           6  forces --- dn/dtau:
     forces       :    330.66s CPU    330.76s WALL (      17 calls)
           7  forces --- i/o, init_us_2, calbec, s_psi:
     forces       :    330.78s CPU    330.88s WALL (      18 calls)
           7  forces --- dn/dtau:
     forces       :    384.29s CPU    384.40s WALL (      19 calls)
           8  forces --- i/o, init_us_2, calbec, s_psi:
     forces       :    384.41s CPU    384.52s WALL (      20 calls)
           8  forces --- dn/dtau:
     forces       :    438.12s CPU    438.29s WALL (      21 calls)
           9  forces --- i/o, init_us_2, calbec, s_psi:
     forces       :    438.24s CPU    438.41s WALL (      22 calls)
           9  forces --- dn/dtau:
     forces       :    491.58s CPU    491.78s WALL (      23 calls)
          10  forces --- i/o, init_us_2, calbec, s_psi:
     forces       :    491.70s CPU    491.90s WALL (      24 calls)
          10  forces --- dn/dtau:
     forces       :    545.05s CPU    545.26s WALL (      25 calls)
          11  forces --- i/o, init_us_2, calbec, s_psi:
     forces       :    545.17s CPU    545.38s WALL (      26 calls)
          11  forces --- dn/dtau:
     forces       :    598.38s CPU    598.61s WALL (      27 calls)
          12  forces --- i/o, init_us_2, calbec, s_psi:
     forces       :    598.50s CPU    598.73s WALL (      28 calls)
          12  forces --- dn/dtau:
     forces       :    651.96s CPU    652.24s WALL (      29 calls)
          13  forces --- i/o, init_us_2, calbec, s_psi:
     forces       :    652.08s CPU    652.36s WALL (      30 calls)
          13  forces --- dn/dtau:
     forces       :    705.49s CPU    705.79s WALL (      31 calls)
          14  forces --- i/o, init_us_2, calbec, s_psi:
     forces       :    705.61s CPU    705.91s WALL (      32 calls)
