
     Program PWSCF v.4.3        starts on  4Sep2018 at 18:24:47 

     This program is part of the open-source Quantum ESPRESSO suite
     for quantum simulation of materials; please cite
         "P. Giannozzi et al., J. Phys.:Condens. Matter 21 395502 (2009);
          URL http://www.quantum-espresso.org", 
     in publications or presentations arising from this work. More details at
     http://www.quantum-espresso.org/wiki/index.php/Citing_Quantum-ESPRESSO

     Parallel version (MPI), running on     1 processors

     Current dimensions of program PWSCF are:
     Max number of different atomic species (ntypx) = **
     Max number of k-points (npk) =  40000
     Max angular momentum in pseudopotentials (lmaxx) =  3
     Waiting for input...

     Subspace diagonalization in iterative solution of the eigenvalue problem:
     a serial algorithm will be used

 
   Stick Mesh
   ----------
   nst =  7177,  nstw =   793, nsts =  2877
               n.st   n.stw   n.sts    n.g    n.gw   n.gs
   min        7177     793    2877  442525   16599  111903
   max        7177     793    2877  442525   16599  111903
       7177     793    2877  442525   16599  111903
 


     bravais-lattice index     =           14
     lattice parameter (a_0)   =      17.3432  a.u.
     unit-cell volume          =    5043.2518 (a.u.)^3
     number of atoms/cell      =            1
     number of atomic types    =            1
     number of electrons       =         6.00
     number of Kohn-Sham states=            7
     kinetic-energy cutoff     =      30.0000  Ry
     charge density cutoff     =     300.0000  Ry
     convergence threshold     =      1.0E-08
     mixing beta               =       0.1000
     number of iterations used =            8  local-TF  mixing
     Exchange-correlation      =  SLA  PW   PBE  PBE (1434)
     EXX-fraction              =        0.00

     celldm(1)=  17.343151  celldm(2)=   1.000000  celldm(3)=   0.966778
     celldm(4)=   0.000000  celldm(5)=   0.000000  celldm(6)=   0.000000

     crystal axes: (cart. coord. in units of a_0)
               a(1) = (   1.000000   0.000000   0.000000 )  
               a(2) = (   0.000000   1.000000   0.000000 )  
               a(3) = (   0.000000   0.000000   0.966778 )  

     reciprocal axes: (cart. coord. in units 2 pi/a_0)
               b(1) = (  1.000000  0.000000  0.000000 )  
               b(2) = (  0.000000  1.000000  0.000000 )  
               b(3) = (  0.000000  0.000000  1.034364 )  


     PseudoPot. # 1 for O  read from file O.pbe-van_bm.UPF
     MD5 check sum: ca2828d9fb1f294809e918903b7648d1
     Pseudo is Ultrasoft, Zval =  6.0
     Generated by new atomic code, or converted to UPF format
     Using radial grid of  737 points,  4 beta functions with: 
                l(1) =   0
                l(2) =   0
                l(3) =   1
                l(4) =   1
     Q(r) pseudized with  8 coefficients,  rinner =    0.800   0.800   0.800


     atomic species   valence    mass     pseudopotential
        O              6.00    15.99900     O ( 1.00)

     16 Sym.Ops. (with inversion)


   Cartesian axes

     site n.     atom                  positions (a_0 units)
         1           O   tau(  1) = (   0.0000000   0.0000000   0.0000000  )

     number of k points=     6  Fermi-Dirac smearing, width (Ry)=  0.0019
                       cart. coord. in units 2pi/a_0
        k(    1) = (   0.0000000   0.0000000   0.0000000), wk =   0.2500000
        k(    2) = (   0.0000000   0.0000000  -0.5171819), wk =   0.2500000
        k(    3) = (   0.0000000  -0.5000000   0.0000000), wk =   0.5000000
        k(    4) = (   0.0000000  -0.5000000  -0.5171819), wk =   0.5000000
        k(    5) = (  -0.5000000  -0.5000000   0.0000000), wk =   0.2500000
        k(    6) = (  -0.5000000  -0.5000000  -0.5171819), wk =   0.2500000

     G cutoff = 2285.6909  ( 442525 G-vectors)     FFT grid: ( 96, 96, 96)
     G cutoff =  914.2764  ( 111903 G-vectors)  smooth grid: ( 64, 64, 60)

     Largest allocated arrays     est. size (Mb)     dimensions
        Kohn-Sham Wavefunctions         1.50 Mb     (  14028,   7)
        NL pseudopotentials             1.71 Mb     (  14028,   8)
        Each V/rho on FFT grid         13.50 Mb     ( 884736)
        Each G-vector array             3.38 Mb     ( 442525)
        G-vector shells                 0.17 Mb     (  22534)
     Largest temporary arrays     est. size (Mb)     dimensions
        Auxiliary wavefunctions         5.99 Mb     (  14028,  28)
        Each subspace H/S matrix        0.01 Mb     (     28,  28)
        Each <psi_i|beta_j> matrix      0.00 Mb     (      8,   7)
        Arrays for rho mixing         108.00 Mb     ( 884736,   8)

     Initial potential from superposition of free atoms
     Check: negative starting charge=   -0.009856

     starting charge    6.00000, renormalised to    6.00000

     negative rho (up, down):  0.986E-02 0.000E+00
     Starting wfc are    4 atomic +    3 random wfc

     total cpu time spent up to now is      4.98 secs

     per-process dynamical memory:   223.8 Mb

     Self-consistent Calculation

     iteration #  1     ecut=    30.00 Ry     beta=0.10
     Davidson diagonalization with overlap
     ethr =  1.00E-02,  avg # of iterations =  7.0

     Threshold (ethr) on eigenvalues was too large:
     Diagonalizing with lowered threshold

     Davidson diagonalization with overlap
     c_bands:  1 eigenvalues not converged
     c_bands:  1 eigenvalues not converged
     ethr =  3.59E-06,  avg # of iterations = 16.3

     negative rho (up, down):  0.735E-02 0.000E+00

     total cpu time spent up to now is     26.57 secs

     total energy              =     -31.54440870 Ry
     Harris-Foulkes estimate   =     -31.54418998 Ry
     estimated scf accuracy    <       0.00046413 Ry

     iteration #  2     ecut=    30.00 Ry     beta=0.10
     Davidson diagonalization with overlap
     ethr =  7.74E-06,  avg # of iterations =  2.3

     negative rho (up, down):  0.174E-01 0.000E+00

     total cpu time spent up to now is     41.28 secs

     total energy              =     -31.54442620 Ry
     Harris-Foulkes estimate   =     -31.54441011 Ry
     estimated scf accuracy    <       0.00038321 Ry

     iteration #  3     ecut=    30.00 Ry     beta=0.10
     Davidson diagonalization with overlap
     ethr =  6.39E-06,  avg # of iterations =  2.8

     negative rho (up, down):  0.178E-01 0.000E+00

     total cpu time spent up to now is     53.39 secs

     total energy              =     -31.54443691 Ry
     Harris-Foulkes estimate   =     -31.54446762 Ry
     estimated scf accuracy    <       0.00002401 Ry

     iteration #  4     ecut=    30.00 Ry     beta=0.10
     Davidson diagonalization with overlap
     ethr =  4.00E-07,  avg # of iterations =  1.2

     negative rho (up, down):  0.141E-01 0.000E+00

     total cpu time spent up to now is     64.78 secs

     total energy              =     -31.54433290 Ry
     Harris-Foulkes estimate   =     -31.54443829 Ry
     estimated scf accuracy    <       0.00000838 Ry

     iteration #  5     ecut=    30.00 Ry     beta=0.10
     Davidson diagonalization with overlap
     ethr =  1.40E-07,  avg # of iterations =  2.0

     negative rho (up, down):  0.130E-01 0.000E+00

     total cpu time spent up to now is     78.06 secs

     total energy              =     -31.54437195 Ry
     Harris-Foulkes estimate   =     -31.54433384 Ry
     estimated scf accuracy    <       0.00001116 Ry

     iteration #  6     ecut=    30.00 Ry     beta=0.10
     Davidson diagonalization with overlap
     ethr =  1.40E-07,  avg # of iterations =  1.3

     negative rho (up, down):  0.117E-01 0.000E+00

     total cpu time spent up to now is     91.79 secs

     total energy              =     -31.54433703 Ry
     Harris-Foulkes estimate   =     -31.54437209 Ry
     estimated scf accuracy    <       0.00000419 Ry

     iteration #  7     ecut=    30.00 Ry     beta=0.10
     Davidson diagonalization with overlap
     ethr =  6.98E-08,  avg # of iterations =  1.3

     negative rho (up, down):  0.928E-02 0.000E+00

     total cpu time spent up to now is    103.42 secs

     total energy              =     -31.54422792 Ry
     Harris-Foulkes estimate   =     -31.54433711 Ry
     estimated scf accuracy    <       0.00000264 Ry

     iteration #  8     ecut=    30.00 Ry     beta=0.10
     Davidson diagonalization with overlap
     ethr =  4.41E-08,  avg # of iterations =  4.3

     negative rho (up, down):  0.943E-02 0.000E+00

     total cpu time spent up to now is    118.73 secs

     total energy              =     -31.54418393 Ry
     Harris-Foulkes estimate   =     -31.54422864 Ry
     estimated scf accuracy    <       0.00002674 Ry

     iteration #  9     ecut=    30.00 Ry     beta=0.10
     Davidson diagonalization with overlap
     ethr =  4.41E-08,  avg # of iterations =  2.0

     negative rho (up, down):  0.911E-02 0.000E+00

     total cpu time spent up to now is    130.31 secs

     total energy              =     -31.54412288 Ry
     Harris-Foulkes estimate   =     -31.54418658 Ry
     estimated scf accuracy    <       0.00002247 Ry

     iteration # 10     ecut=    30.00 Ry     beta=0.10
     Davidson diagonalization with overlap
     ethr =  4.41E-08,  avg # of iterations =  1.0

     negative rho (up, down):  0.909E-02 0.000E+00

     total cpu time spent up to now is    145.50 secs

     total energy              =     -31.54405751 Ry
     Harris-Foulkes estimate   =     -31.54412307 Ry
     estimated scf accuracy    <       0.00000713 Ry

     iteration # 11     ecut=    30.00 Ry     beta=0.10
     Davidson diagonalization with overlap
     ethr =  4.41E-08,  avg # of iterations =  2.0

     negative rho (up, down):  0.917E-02 0.000E+00

     total cpu time spent up to now is    156.96 secs

     total energy              =     -31.54397847 Ry
     Harris-Foulkes estimate   =     -31.54405866 Ry
     estimated scf accuracy    <       0.00000931 Ry

     iteration # 12     ecut=    30.00 Ry     beta=0.10
     Davidson diagonalization with overlap
     ethr =  4.41E-08,  avg # of iterations =  1.0

     negative rho (up, down):  0.934E-02 0.000E+00

     total cpu time spent up to now is    167.87 secs

     total energy              =     -31.54395679 Ry
     Harris-Foulkes estimate   =     -31.54397854 Ry
     estimated scf accuracy    <       0.00000197 Ry

     iteration # 13     ecut=    30.00 Ry     beta=0.10
     Davidson diagonalization with overlap
     ethr =  3.28E-08,  avg # of iterations =  1.0

     negative rho (up, down):  0.956E-02 0.000E+00

     total cpu time spent up to now is    178.72 secs

     total energy              =     -31.54398626 Ry
     Harris-Foulkes estimate   =     -31.54395683 Ry
     estimated scf accuracy    <       0.00000571 Ry

     iteration # 14     ecut=    30.00 Ry     beta=0.10
     Davidson diagonalization with overlap
     ethr =  3.28E-08,  avg # of iterations =  1.0

     negative rho (up, down):  0.987E-02 0.000E+00

     total cpu time spent up to now is    189.75 secs

     total energy              =     -31.54402732 Ry
     Harris-Foulkes estimate   =     -31.54398635 Ry
     estimated scf accuracy    <       0.00000166 Ry

     iteration # 15     ecut=    30.00 Ry     beta=0.10
     Davidson diagonalization with overlap
     ethr =  2.76E-08,  avg # of iterations =  1.0

     negative rho (up, down):  0.102E-01 0.000E+00

     total cpu time spent up to now is    201.87 secs

     total energy              =     -31.54404366 Ry
     Harris-Foulkes estimate   =     -31.54402739 Ry
     estimated scf accuracy    <       0.00000006 Ry

     iteration # 16     ecut=    30.00 Ry     beta=0.10
     Davidson diagonalization with overlap
     ethr =  9.61E-10,  avg # of iterations =  2.0

     negative rho (up, down):  0.106E-01 0.000E+00

     total cpu time spent up to now is    213.67 secs

     total energy              =     -31.54404351 Ry
     Harris-Foulkes estimate   =     -31.54404368 Ry
     estimated scf accuracy    <       0.00000012 Ry

     iteration # 17     ecut=    30.00 Ry     beta=0.10
     Davidson diagonalization with overlap
     ethr =  9.61E-10,  avg # of iterations =  2.0

     negative rho (up, down):  0.109E-01 0.000E+00

     total cpu time spent up to now is    224.36 secs

     total energy              =     -31.54403814 Ry
     Harris-Foulkes estimate   =     -31.54404353 Ry
     estimated scf accuracy    <       0.00000073 Ry

     iteration # 18     ecut=    30.00 Ry     beta=0.10
     Davidson diagonalization with overlap
     ethr =  9.61E-10,  avg # of iterations =  2.0

     negative rho (up, down):  0.112E-01 0.000E+00

     total cpu time spent up to now is    237.70 secs

     total energy              =     -31.54403020 Ry
     Harris-Foulkes estimate   =     -31.54403815 Ry
     estimated scf accuracy    <       0.00000044 Ry

     iteration # 19     ecut=    30.00 Ry     beta=0.10
     Davidson diagonalization with overlap
     ethr =  9.61E-10,  avg # of iterations =  1.0

     negative rho (up, down):  0.115E-01 0.000E+00

     total cpu time spent up to now is    247.69 secs

     total energy              =     -31.54402420 Ry
     Harris-Foulkes estimate   =     -31.54403020 Ry
     estimated scf accuracy    <       0.00000023 Ry

     iteration # 20     ecut=    30.00 Ry     beta=0.10
     Davidson diagonalization with overlap
     ethr =  9.61E-10,  avg # of iterations =  2.0

     negative rho (up, down):  0.118E-01 0.000E+00

     total cpu time spent up to now is    259.67 secs

     total energy              =     -31.54402025 Ry
     Harris-Foulkes estimate   =     -31.54402420 Ry
     estimated scf accuracy    <       0.00000015 Ry

     iteration # 21     ecut=    30.00 Ry     beta=0.10
     Davidson diagonalization with overlap
     ethr =  9.61E-10,  avg # of iterations =  1.0

     negative rho (up, down):  0.121E-01 0.000E+00

     total cpu time spent up to now is    270.12 secs

     total energy              =     -31.54401677 Ry
     Harris-Foulkes estimate   =     -31.54402025 Ry
     estimated scf accuracy    <       0.00000049 Ry

     iteration # 22     ecut=    30.00 Ry     beta=0.10
     Davidson diagonalization with overlap
     ethr =  9.61E-10,  avg # of iterations =  2.0

     negative rho (up, down):  0.124E-01 0.000E+00

     total cpu time spent up to now is    283.94 secs

     total energy              =     -31.54401442 Ry
     Harris-Foulkes estimate   =     -31.54401677 Ry
     estimated scf accuracy    <       0.00000055 Ry

     iteration # 23     ecut=    30.00 Ry     beta=0.10
     Davidson diagonalization with overlap
     ethr =  9.61E-10,  avg # of iterations =  1.0

     negative rho (up, down):  0.126E-01 0.000E+00

     total cpu time spent up to now is    294.31 secs

     total energy              =     -31.54401277 Ry
     Harris-Foulkes estimate   =     -31.54401442 Ry
     estimated scf accuracy    <       0.00000032 Ry

     iteration # 24     ecut=    30.00 Ry     beta=0.10
     Davidson diagonalization with overlap
     ethr =  9.61E-10,  avg # of iterations =  1.0

     negative rho (up, down):  0.128E-01 0.000E+00

     total cpu time spent up to now is    304.94 secs

     total energy              =     -31.54401152 Ry
     Harris-Foulkes estimate   =     -31.54401278 Ry
     estimated scf accuracy    <       0.00000003 Ry

     iteration # 25     ecut=    30.00 Ry     beta=0.10
     Davidson diagonalization with overlap
     ethr =  4.62E-10,  avg # of iterations =  2.0

     negative rho (up, down):  0.130E-01 0.000E+00

     total cpu time spent up to now is    315.94 secs

     total energy              =     -31.54401081 Ry
     Harris-Foulkes estimate   =     -31.54401154 Ry
     estimated scf accuracy    <       0.00000040 Ry

     iteration # 26     ecut=    30.00 Ry     beta=0.10
     Davidson diagonalization with overlap
     ethr =  4.62E-10,  avg # of iterations =  2.0

     negative rho (up, down):  0.132E-01 0.000E+00

     total cpu time spent up to now is    328.01 secs

     total energy              =     -31.54401028 Ry
     Harris-Foulkes estimate   =     -31.54401082 Ry
     estimated scf accuracy    <       0.00000006 Ry

     iteration # 27     ecut=    30.00 Ry     beta=0.10
     Davidson diagonalization with overlap
     ethr =  4.62E-10,  avg # of iterations =  1.0

     negative rho (up, down):  0.134E-01 0.000E+00

     total cpu time spent up to now is    339.95 secs

     total energy              =     -31.54400994 Ry
     Harris-Foulkes estimate   =     -31.54401028 Ry
     estimated scf accuracy    <       0.00000008 Ry

     iteration # 28     ecut=    30.00 Ry     beta=0.10
     Davidson diagonalization with overlap
     ethr =  4.62E-10,  avg # of iterations =  1.0

     negative rho (up, down):  0.135E-01 0.000E+00

     total cpu time spent up to now is    351.19 secs

     total energy              =     -31.54400981 Ry
     Harris-Foulkes estimate   =     -31.54400995 Ry
     estimated scf accuracy    <       0.00000035 Ry

     iteration # 29     ecut=    30.00 Ry     beta=0.10
     Davidson diagonalization with overlap
     ethr =  4.62E-10,  avg # of iterations =  1.0

     negative rho (up, down):  0.136E-01 0.000E+00

     total cpu time spent up to now is    362.11 secs

     total energy              =     -31.54400967 Ry
     Harris-Foulkes estimate   =     -31.54400982 Ry
     estimated scf accuracy    <       0.00000096 Ry

     iteration # 30     ecut=    30.00 Ry     beta=0.10
     Davidson diagonalization with overlap
     ethr =  4.62E-10,  avg # of iterations =  2.0

     negative rho (up, down):  0.138E-01 0.000E+00

     total cpu time spent up to now is    374.36 secs

     total energy              =     -31.54400953 Ry
     Harris-Foulkes estimate   =     -31.54400969 Ry
     estimated scf accuracy    <       0.00000010 Ry

     iteration # 31     ecut=    30.00 Ry     beta=0.10
     Davidson diagonalization with overlap
     ethr =  4.62E-10,  avg # of iterations =  1.0

     negative rho (up, down):  0.139E-01 0.000E+00

     total cpu time spent up to now is    385.90 secs

     total energy              =     -31.54400958 Ry
     Harris-Foulkes estimate   =     -31.54400954 Ry
     estimated scf accuracy    <       0.00000010 Ry

     iteration # 32     ecut=    30.00 Ry     beta=0.10
     Davidson diagonalization with overlap
     ethr =  4.62E-10,  avg # of iterations =  1.0

     negative rho (up, down):  0.140E-01 0.000E+00

     total cpu time spent up to now is    396.67 secs

     total energy              =     -31.54400954 Ry
     Harris-Foulkes estimate   =     -31.54400958 Ry
     estimated scf accuracy    <       0.00000004 Ry

     iteration # 33     ecut=    30.00 Ry     beta=0.10
     Davidson diagonalization with overlap
     ethr =  4.62E-10,  avg # of iterations =  1.0

     negative rho (up, down):  0.141E-01 0.000E+00

     total cpu time spent up to now is    407.78 secs

     total energy              =     -31.54400945 Ry
     Harris-Foulkes estimate   =     -31.54400955 Ry
     estimated scf accuracy    <       0.00000003 Ry

     iteration # 34     ecut=    30.00 Ry     beta=0.10
     Davidson diagonalization with overlap
     ethr =  4.62E-10,  avg # of iterations =  2.0

     negative rho (up, down):  0.142E-01 0.000E+00

     total cpu time spent up to now is    419.65 secs

     total energy              =     -31.54400950 Ry
     Harris-Foulkes estimate   =     -31.54400945 Ry
     estimated scf accuracy    <       0.00000009 Ry

     iteration # 35     ecut=    30.00 Ry     beta=0.10
     Davidson diagonalization with overlap
     ethr =  4.62E-10,  avg # of iterations =  1.0

     negative rho (up, down):  0.142E-01 0.000E+00

     total cpu time spent up to now is    433.46 secs

     total energy              =     -31.54400949 Ry
     Harris-Foulkes estimate   =     -31.54400950 Ry
     estimated scf accuracy    <       0.00000008 Ry

     iteration # 36     ecut=    30.00 Ry     beta=0.10
     Davidson diagonalization with overlap
     ethr =  4.62E-10,  avg # of iterations =  1.0

     negative rho (up, down):  0.143E-01 0.000E+00

     total cpu time spent up to now is    446.52 secs

     total energy              =     -31.54400953 Ry
     Harris-Foulkes estimate   =     -31.54400949 Ry
     estimated scf accuracy    <       0.00000008 Ry

     iteration # 37     ecut=    30.00 Ry     beta=0.10
     Davidson diagonalization with overlap
     ethr =  4.62E-10,  avg # of iterations =  2.0

     negative rho (up, down):  0.143E-01 0.000E+00

     total cpu time spent up to now is    458.88 secs

     total energy              =     -31.54400956 Ry
     Harris-Foulkes estimate   =     -31.54400953 Ry
     estimated scf accuracy    <       0.00000002 Ry

     iteration # 38     ecut=    30.00 Ry     beta=0.10
     Davidson diagonalization with overlap
     ethr =  2.61E-10,  avg # of iterations =  1.0

     negative rho (up, down):  0.149E-01 0.000E+00

     total cpu time spent up to now is    464.46 secs

     End of self-consistent calculation

          k = 0.0000 0.0000 0.0000 ( 13937 PWs)   bands (ev):

   -23.9110  -8.8765  -8.8764  -8.8764  -0.8337   0.9494   0.9665

          k = 0.0000 0.0000-0.5172 ( 13998 PWs)   bands (ev):

   -23.9110  -8.8765  -8.8765  -8.8765  -0.4268  -0.2610   1.3654

          k = 0.0000-0.5000 0.0000 ( 14026 PWs)   bands (ev):

   -23.9110  -8.8767  -8.8766  -8.8765  -0.4597  -0.2902   1.3318

          k = 0.0000-0.5000-0.5172 ( 13952 PWs)   bands (ev):

   -23.9110  -8.8766  -8.8765  -8.8764  -0.0647   0.1396   0.1431

          k =-0.5000-0.5000 0.0000 ( 14028 PWs)   bands (ev):

   -23.9110  -8.8766  -8.8766  -8.8766  -0.0977   0.1103   0.1103

          k =-0.5000-0.5000-0.5172 ( 13984 PWs)   bands (ev):

   -23.9110  -8.8765  -8.8765  -8.8765   0.2942   0.5214   0.5243

     the Fermi energy is    -8.8586 ev

!    total energy              =     -31.54400951 Ry
     Harris-Foulkes estimate   =     -31.54400956 Ry
     estimated scf accuracy    <          5.7E-09 Ry

     The total energy is the sum of the following terms:

     one-electron contribution =     -40.48629793 Ry
     hartree contribution      =      21.36971400 Ry
     xc contribution           =      -6.46624940 Ry
     ewald contribution        =      -5.95391993 Ry
     smearing contrib. (-TS)   =      -0.00725625 Ry

     convergence has been achieved in  38 iterations
 forces --- starting time for forces:
     forces       :      0.00s CPU      0.00s WALL (       1 calls)

     Forces acting on atoms (Ry/au):

 forces --- nonlocal contribution:
     forces       :      0.91s CPU      0.95s WALL (       2 calls)
 forces --- local contribution:
     forces       :      0.99s CPU      1.04s WALL (       3 calls)
 forces --- NLCC contribution:
     forces       :      0.99s CPU      1.04s WALL (       4 calls)
 forces --- Hubbard contribution:
     forces       :      0.99s CPU      1.04s WALL (       5 calls)
 forces --- ionic contribution:
     forces       :      1.02s CPU      1.07s WALL (       6 calls)
 forces --- SCF contribution:
     forces       :      1.42s CPU      1.47s WALL (       7 calls)
     atom   1 type  1   force =     0.00000000    0.00000000    0.00000000

     Total force =     0.000000     Total SCF correction =     0.000000


     entering subroutine stress ...

          total   stress  (Ry/bohr**3)                   (kbar)     P=   -0.28
  -0.00000193   0.00000000   0.00000000         -0.28      0.00      0.00
   0.00000000  -0.00000193   0.00000000          0.00     -0.28      0.00
   0.00000000   0.00000000  -0.00000192          0.00      0.00     -0.28


     Writing output data file atom.O-GS.save
 
     init_run     :      4.71s CPU      4.90s WALL (       1 calls)
     electrons    :    452.50s CPU    459.48s WALL (       1 calls)
     forces       :      1.42s CPU      1.47s WALL (       8 calls)
     stress       :      5.20s CPU      5.35s WALL (       1 calls)

     Called by init_run:
     wfcinit      :      1.00s CPU      1.02s WALL (       1 calls)
     potinit      :      1.73s CPU      1.81s WALL (       1 calls)

     Called by electrons:
     c_bands      :     93.39s CPU     94.43s WALL (      39 calls)
     sum_band     :     51.78s CPU     53.25s WALL (      39 calls)
     v_of_rho     :     46.75s CPU     48.23s WALL (      39 calls)
     newd         :     30.68s CPU     31.66s WALL (      39 calls)
     mix_rho      :    225.31s CPU    226.08s WALL (      39 calls)

     Called by c_bands:
     init_us_2    :      2.23s CPU      2.34s WALL (     486 calls)
     cegterg      :     90.14s CPU     90.66s WALL (     234 calls)

     Called by *egterg:
     h_psi        :     85.00s CPU     85.10s WALL (     724 calls)
     s_psi        :      0.53s CPU      0.54s WALL (     724 calls)
     g_psi        :      0.55s CPU      0.56s WALL (     484 calls)
     cdiaghg      :      0.19s CPU      0.19s WALL (     712 calls)

     Called by h_psi:
     add_vuspsi   :      0.56s CPU      0.56s WALL (     724 calls)

     General routines
     calbec       :      0.80s CPU      0.80s WALL (     970 calls)
     fft          :     37.01s CPU     37.79s WALL (     632 calls)
     ffts         :    121.15s CPU    121.29s WALL (    9443 calls)
     fftw         :     90.89s CPU     90.97s WALL (    9452 calls)
     interpolate  :      6.10s CPU      6.27s WALL (      78 calls)
     davcio       :      0.17s CPU      0.66s WALL (     726 calls)
 
     Parallel routines
 
     PWSCF        :  7m44.24s CPU     7m51.91s WALL

 
   This run was terminated on:  18:32:39   4Sep2018            

=------------------------------------------------------------------------------=
   JOB DONE.
=------------------------------------------------------------------------------=
