
     Program PWSCF v.4.3        starts on  4Sep2018 at 18:32:40 

     This program is part of the open-source Quantum ESPRESSO suite
     for quantum simulation of materials; please cite
         "P. Giannozzi et al., J. Phys.:Condens. Matter 21 395502 (2009);
          URL http://www.quantum-espresso.org", 
     in publications or presentations arising from this work. More details at
     http://www.quantum-espresso.org/wiki/index.php/Citing_Quantum-ESPRESSO

     Parallel version (MPI), running on     1 processors

     Current dimensions of program PWSCF are:
     Max number of different atomic species (ntypx) = **
     Max number of k-points (npk) =  40000
     Max angular momentum in pseudopotentials (lmaxx) =  3
     Waiting for input...

     Subspace diagonalization in iterative solution of the eigenvalue problem:
     a serial algorithm will be used

 
   Stick Mesh
   ----------
   nst =  7177,  nstw =   793, nsts =  2877
               n.st   n.stw   n.sts    n.g    n.gw   n.gs
   min        7177     793    2877  442525   16599  111903
   max        7177     793    2877  442525   16599  111903
       7177     793    2877  442525   16599  111903
 


     bravais-lattice index     =           14
     lattice parameter (a_0)   =      17.3432  a.u.
     unit-cell volume          =    5043.2518 (a.u.)^3
     number of atoms/cell      =            1
     number of atomic types    =            1
     number of electrons       =         7.00
     number of Kohn-Sham states=            7
     kinetic-energy cutoff     =      30.0000  Ry
     charge density cutoff     =     300.0000  Ry
     convergence threshold     =      1.0E-08
     mixing beta               =       0.1000
     number of iterations used =            8  local-TF  mixing
     Exchange-correlation      = SLA  PW   PBE  PBE (1434)
     EXX-fraction              =        0.00

     celldm(1)=  17.343151  celldm(2)=   1.000000  celldm(3)=   0.966778
     celldm(4)=   0.000000  celldm(5)=   0.000000  celldm(6)=   0.000000

     crystal axes: (cart. coord. in units of a_0)
               a(1) = (   1.000000   0.000000   0.000000 )  
               a(2) = (   0.000000   1.000000   0.000000 )  
               a(3) = (   0.000000   0.000000   0.966778 )  

     reciprocal axes: (cart. coord. in units 2 pi/a_0)
               b(1) = (  1.000000  0.000000  0.000000 )  
               b(2) = (  0.000000  1.000000  0.000000 )  
               b(3) = (  0.000000  0.000000  1.034364 )  


     PseudoPot. # 1 for ox read from file O.pbe-van-dgp-1s1.UPF
     MD5 check sum: 2083901d62884ac3a15d661bda1575b3
     Pseudo is Ultrasoft, Zval =  7.0
     Generated by new atomic code, or converted to UPF format
     Using radial grid of  737 points,  4 beta functions with: 
                l(1) =   0
                l(2) =   0
                l(3) =   1
                l(4) =   1
     Q(r) pseudized with  8 coefficients,  rinner =    0.800   0.800   0.800


     atomic species   valence    mass     pseudopotential
        OX             7.00    15.99900     ox( 1.00)

     16 Sym.Ops. (with inversion)


   Cartesian axes

     site n.     atom                  positions (a_0 units)
         1           OX  tau(  1) = (   0.0000000   0.0000000   0.0000000  )

     number of k points=     6  Fermi-Dirac smearing, width (Ry)=  0.0019
                       cart. coord. in units 2pi/a_0
        k(    1) = (   0.0000000   0.0000000   0.0000000), wk =   0.2500000
        k(    2) = (   0.0000000   0.0000000  -0.5171819), wk =   0.2500000
        k(    3) = (   0.0000000  -0.5000000   0.0000000), wk =   0.5000000
        k(    4) = (   0.0000000  -0.5000000  -0.5171819), wk =   0.5000000
        k(    5) = (  -0.5000000  -0.5000000   0.0000000), wk =   0.2500000
        k(    6) = (  -0.5000000  -0.5000000  -0.5171819), wk =   0.2500000

     G cutoff = 2285.6909  ( 442525 G-vectors)     FFT grid: ( 96, 96, 96)
     G cutoff =  914.2764  ( 111903 G-vectors)  smooth grid: ( 64, 64, 60)

     Largest allocated arrays     est. size (Mb)     dimensions
        Kohn-Sham Wavefunctions         1.50 Mb     (  14028,   7)
        NL pseudopotentials             1.71 Mb     (  14028,   8)
        Each V/rho on FFT grid         13.50 Mb     ( 884736)
        Each G-vector array             3.38 Mb     ( 442525)
        G-vector shells                 0.17 Mb     (  22534)
     Largest temporary arrays     est. size (Mb)     dimensions
        Auxiliary wavefunctions         5.99 Mb     (  14028,  28)
        Each subspace H/S matrix        0.01 Mb     (     28,  28)
        Each <psi_i|beta_j> matrix      0.00 Mb     (      8,   7)
        Arrays for rho mixing         108.00 Mb     ( 884736,   8)

     Initial potential from superposition of free atoms
     Check: negative starting charge=   -0.007321

     starting charge    6.00000, renormalised to    7.00000

     negative rho (up, down):  0.854E-02 0.000E+00
     Starting wfc are    4 atomic +    3 random wfc

     total cpu time spent up to now is      4.93 secs

     per-process dynamical memory:   223.8 Mb

     Self-consistent Calculation

     iteration #  1     ecut=    30.00 Ry     beta=0.10
     Davidson diagonalization with overlap
     ethr =  1.00E-02,  avg # of iterations =  7.2

     negative rho (up, down):  0.211E-01 0.000E+00

     total cpu time spent up to now is     21.28 secs

     total energy              =     -47.53432599 Ry
     Harris-Foulkes estimate   =     -47.60044638 Ry
     estimated scf accuracy    <       0.89700077 Ry

     iteration #  2     ecut=    30.00 Ry     beta=0.10
     Davidson diagonalization with overlap
     ethr =  1.00E-02,  avg # of iterations =  1.0

     negative rho (up, down):  0.164E+00 0.000E+00

     total cpu time spent up to now is     31.50 secs

     total energy              =     -47.18139112 Ry
     Harris-Foulkes estimate   =     -47.53679700 Ry
     estimated scf accuracy    <       0.70248134 Ry

     iteration #  3     ecut=    30.00 Ry     beta=0.10
     Davidson diagonalization with overlap
     ethr =  1.00E-02,  avg # of iterations =  2.0

     negative rho (up, down):  0.124E+00 0.000E+00

     total cpu time spent up to now is     47.82 secs

     total energy              =     -47.33007407 Ry
     Harris-Foulkes estimate   =     -47.33428401 Ry
     estimated scf accuracy    <       0.01460676 Ry

     iteration #  4     ecut=    30.00 Ry     beta=0.10
     Davidson diagonalization with overlap
     ethr =  2.09E-04,  avg # of iterations =  2.0

     negative rho (up, down):  0.110E+00 0.000E+00

     total cpu time spent up to now is     59.44 secs

     total energy              =     -47.32948084 Ry
     Harris-Foulkes estimate   =     -47.33495498 Ry
     estimated scf accuracy    <       0.02037065 Ry

     iteration #  5     ecut=    30.00 Ry     beta=0.10
     Davidson diagonalization with overlap
     ethr =  2.09E-04,  avg # of iterations =  1.0

     negative rho (up, down):  0.919E-01 0.000E+00

     total cpu time spent up to now is     69.65 secs

     total energy              =     -47.31987967 Ry
     Harris-Foulkes estimate   =     -47.32971299 Ry
     estimated scf accuracy    <       0.01116537 Ry

     iteration #  6     ecut=    30.00 Ry     beta=0.10
     Davidson diagonalization with overlap
     ethr =  1.60E-04,  avg # of iterations =  2.0

     negative rho (up, down):  0.678E-01 0.000E+00

     total cpu time spent up to now is     80.96 secs

     total energy              =     -47.33571925 Ry
     Harris-Foulkes estimate   =     -47.32437170 Ry
     estimated scf accuracy    <       0.00528109 Ry

     iteration #  7     ecut=    30.00 Ry     beta=0.10
     Davidson diagonalization with overlap
     ethr =  7.54E-05,  avg # of iterations =  8.7

     negative rho (up, down):  0.203E-01 0.000E+00

     total cpu time spent up to now is     94.92 secs

     total energy              =     -47.31337380 Ry
     Harris-Foulkes estimate   =     -47.34184825 Ry
     estimated scf accuracy    <       0.05293997 Ry

     iteration #  8     ecut=    30.00 Ry     beta=0.10
     Davidson diagonalization with overlap
     ethr =  7.54E-05,  avg # of iterations =  3.0

     negative rho (up, down):  0.108E-01 0.000E+00

     total cpu time spent up to now is    116.48 secs

     total energy              =     -47.32187107 Ry
     Harris-Foulkes estimate   =     -47.32139951 Ry
     estimated scf accuracy    <       0.00048484 Ry

     iteration #  9     ecut=    30.00 Ry     beta=0.10
     Davidson diagonalization with overlap
     ethr =  6.93E-06,  avg # of iterations = 10.0

     negative rho (up, down):  0.566E-02 0.000E+00

     total cpu time spent up to now is    135.44 secs

     total energy              =     -47.32135301 Ry
     Harris-Foulkes estimate   =     -47.32209598 Ry
     estimated scf accuracy    <       0.00260227 Ry

     iteration # 10     ecut=    30.00 Ry     beta=0.10
     Davidson diagonalization with overlap
     ethr =  6.93E-06,  avg # of iterations =  3.8

     negative rho (up, down):  0.666E-02 0.000E+00

     total cpu time spent up to now is    147.70 secs

     total energy              =     -47.32102091 Ry
     Harris-Foulkes estimate   =     -47.32147202 Ry
     estimated scf accuracy    <       0.00076711 Ry

     iteration # 11     ecut=    30.00 Ry     beta=0.10
     Davidson diagonalization with overlap
     ethr =  6.93E-06,  avg # of iterations =  3.0

     negative rho (up, down):  0.598E-02 0.000E+00

     total cpu time spent up to now is    161.49 secs

     total energy              =     -47.32123410 Ry
     Harris-Foulkes estimate   =     -47.32124174 Ry
     estimated scf accuracy    <       0.00003844 Ry

     iteration # 12     ecut=    30.00 Ry     beta=0.10
     Davidson diagonalization with overlap
     ethr =  5.49E-07,  avg # of iterations =  1.0

     negative rho (up, down):  0.520E-02 0.000E+00

     total cpu time spent up to now is    173.99 secs

     total energy              =     -47.32124325 Ry
     Harris-Foulkes estimate   =     -47.32123430 Ry
     estimated scf accuracy    <       0.00003104 Ry

     iteration # 13     ecut=    30.00 Ry     beta=0.10
     Davidson diagonalization with overlap
     ethr =  4.43E-07,  avg # of iterations =  1.0

     negative rho (up, down):  0.357E-02 0.000E+00

     total cpu time spent up to now is    192.10 secs

     total energy              =     -47.32124994 Ry
     Harris-Foulkes estimate   =     -47.32124391 Ry
     estimated scf accuracy    <       0.00005440 Ry

     iteration # 14     ecut=    30.00 Ry     beta=0.10
     Davidson diagonalization with overlap
     ethr =  4.43E-07,  avg # of iterations =  5.3

     negative rho (up, down):  0.305E-02 0.000E+00

     total cpu time spent up to now is    209.64 secs

     total energy              =     -47.32126129 Ry
     Harris-Foulkes estimate   =     -47.32125648 Ry
     estimated scf accuracy    <       0.00003236 Ry

     iteration # 15     ecut=    30.00 Ry     beta=0.10
     Davidson diagonalization with overlap
     ethr =  4.43E-07,  avg # of iterations =  1.0

     negative rho (up, down):  0.274E-02 0.000E+00

     total cpu time spent up to now is    221.90 secs

     total energy              =     -47.32126097 Ry
     Harris-Foulkes estimate   =     -47.32126191 Ry
     estimated scf accuracy    <       0.00000239 Ry

     iteration # 16     ecut=    30.00 Ry     beta=0.10
     Davidson diagonalization with overlap
     ethr =  3.41E-08,  avg # of iterations =  1.0

     negative rho (up, down):  0.248E-02 0.000E+00

     total cpu time spent up to now is    239.28 secs

     total energy              =     -47.32125909 Ry
     Harris-Foulkes estimate   =     -47.32126100 Ry
     estimated scf accuracy    <       0.00000044 Ry

     iteration # 17     ecut=    30.00 Ry     beta=0.10
     Davidson diagonalization with overlap
     ethr =  6.34E-09,  avg # of iterations =  1.0

     negative rho (up, down):  0.229E-02 0.000E+00

     total cpu time spent up to now is    263.65 secs

     total energy              =     -47.32125766 Ry
     Harris-Foulkes estimate   =     -47.32125910 Ry
     estimated scf accuracy    <       0.00000042 Ry

     iteration # 18     ecut=    30.00 Ry     beta=0.10
     Davidson diagonalization with overlap
     ethr =  6.05E-09,  avg # of iterations =  1.0

     negative rho (up, down):  0.210E-02 0.000E+00

     total cpu time spent up to now is    276.07 secs

     total energy              =     -47.32125662 Ry
     Harris-Foulkes estimate   =     -47.32125769 Ry
     estimated scf accuracy    <       0.00000007 Ry

     iteration # 19     ecut=    30.00 Ry     beta=0.10
     Davidson diagonalization with overlap
     ethr =  9.76E-10,  avg # of iterations =  1.0

     negative rho (up, down):  0.206E-02 0.000E+00

     total cpu time spent up to now is    290.30 secs

     total energy              =     -47.32125484 Ry
     Harris-Foulkes estimate   =     -47.32125662 Ry
     estimated scf accuracy    <       0.00000013 Ry

     iteration # 20     ecut=    30.00 Ry     beta=0.10
     Davidson diagonalization with overlap
     ethr =  9.76E-10,  avg # of iterations =  2.0

     negative rho (up, down):  0.190E-02 0.000E+00

     total cpu time spent up to now is    302.79 secs

     total energy              =     -47.32125335 Ry
     Harris-Foulkes estimate   =     -47.32125493 Ry
     estimated scf accuracy    <       0.00000396 Ry

     iteration # 21     ecut=    30.00 Ry     beta=0.10
     Davidson diagonalization with overlap
     ethr =  9.76E-10,  avg # of iterations =  2.0

     negative rho (up, down):  0.181E-02 0.000E+00

     total cpu time spent up to now is    313.38 secs

     total energy              =     -47.32125151 Ry
     Harris-Foulkes estimate   =     -47.32125354 Ry
     estimated scf accuracy    <       0.00000010 Ry

     iteration # 22     ecut=    30.00 Ry     beta=0.10
     Davidson diagonalization with overlap
     ethr =  9.76E-10,  avg # of iterations =  1.0

     negative rho (up, down):  0.174E-02 0.000E+00

     total cpu time spent up to now is    324.62 secs

     total energy              =     -47.32124906 Ry
     Harris-Foulkes estimate   =     -47.32125152 Ry
     estimated scf accuracy    <       0.00000007 Ry

     iteration # 23     ecut=    30.00 Ry     beta=0.10
     Davidson diagonalization with overlap
     ethr =  9.76E-10,  avg # of iterations =  1.0

     negative rho (up, down):  0.170E-02 0.000E+00

     total cpu time spent up to now is    336.26 secs

     total energy              =     -47.32124615 Ry
     Harris-Foulkes estimate   =     -47.32124906 Ry
     estimated scf accuracy    <       0.00000007 Ry

     iteration # 24     ecut=    30.00 Ry     beta=0.10
     Davidson diagonalization with overlap
     ethr =  9.35E-10,  avg # of iterations =  1.0

     negative rho (up, down):  0.167E-02 0.000E+00

     total cpu time spent up to now is    348.61 secs

     total energy              =     -47.32124390 Ry
     Harris-Foulkes estimate   =     -47.32124616 Ry
     estimated scf accuracy    <       0.00000002 Ry

     iteration # 25     ecut=    30.00 Ry     beta=0.10
     Davidson diagonalization with overlap
     ethr =  3.02E-10,  avg # of iterations =  1.0

     negative rho (up, down):  0.166E-02 0.000E+00

     total cpu time spent up to now is    361.68 secs

     total energy              =     -47.32124261 Ry
     Harris-Foulkes estimate   =     -47.32124391 Ry
     estimated scf accuracy    <       0.00000003 Ry

     iteration # 26     ecut=    30.00 Ry     beta=0.10
     Davidson diagonalization with overlap
     ethr =  3.02E-10,  avg # of iterations =  1.0

     negative rho (up, down):  0.193E-02 0.000E+00

     total cpu time spent up to now is    367.03 secs

     End of self-consistent calculation

          k = 0.0000 0.0000 0.0000 ( 13937 PWs)   bands (ev):

   -26.4096 -11.4841 -11.4840 -11.4840  -0.4537   1.2666   1.3284

          k = 0.0000 0.0000-0.5172 ( 13998 PWs)   bands (ev):

   -26.4096 -11.4841 -11.4841 -11.4840  -0.0771   0.1463   1.6821

          k = 0.0000-0.5000 0.0000 ( 14026 PWs)   bands (ev):

   -26.4096 -11.4843 -11.4842 -11.4841  -0.1105   0.1198   1.6506

          k = 0.0000-0.5000-0.5172 ( 13952 PWs)   bands (ev):

   -26.4096 -11.4841 -11.4840 -11.4840   0.2407   0.5312   0.5392

          k =-0.5000-0.5000 0.0000 ( 14028 PWs)   bands (ev):

   -26.4096 -11.4842 -11.4842 -11.4842   0.2071   0.5065   0.6263

          k =-0.5000-0.5000-0.5172 ( 13984 PWs)   bands (ev):

   -26.4096 -11.4841 -11.4841 -11.4841   0.5371   0.8873   0.8973

     the Fermi energy is   -11.4425 ev

!    total energy              =     -47.32124874 Ry
     Harris-Foulkes estimate   =     -47.32124262 Ry
     estimated scf accuracy    <          5.5E-10 Ry

     The total energy is the sum of the following terms:

     one-electron contribution =     -64.11740649 Ry
     hartree contribution      =      33.73629822 Ry
     xc contribution           =      -8.83105751 Ry
     ewald contribution        =      -8.10394657 Ry
     smearing contrib. (-TS)   =      -0.00513639 Ry

     convergence has been achieved in  26 iterations
 forces --- starting time for forces:
     forces       :      0.00s CPU      0.00s WALL (       1 calls)

     Forces acting on atoms (Ry/au):

 forces --- nonlocal contribution:
     forces       :      0.89s CPU      0.94s WALL (       2 calls)
 forces --- local contribution:
     forces       :      0.98s CPU      1.02s WALL (       3 calls)
 forces --- NLCC contribution:
     forces       :      0.98s CPU      1.02s WALL (       4 calls)
 forces --- Hubbard contribution:
     forces       :      0.98s CPU      1.02s WALL (       5 calls)
 forces --- ionic contribution:
     forces       :      1.01s CPU      1.05s WALL (       6 calls)
 forces --- SCF contribution:
     forces       :      1.41s CPU      1.45s WALL (       7 calls)
     atom   1 type  1   force =     0.00000000    0.00000000    0.00000000

     Total force =     0.000000     Total SCF correction =     0.000000


     entering subroutine stress ...

          total   stress  (Ry/bohr**3)                   (kbar)     P=   -0.37
  -0.00000251   0.00000000   0.00000000         -0.37      0.00      0.00
   0.00000000  -0.00000251   0.00000000          0.00     -0.37      0.00
   0.00000000   0.00000000  -0.00000253          0.00      0.00     -0.37


     Writing output data file atom.O-FCH.save
 
     init_run     :      4.68s CPU      4.86s WALL (       1 calls)
     electrons    :    357.44s CPU    362.10s WALL (       1 calls)
     forces       :      1.41s CPU      1.45s WALL (       8 calls)
     stress       :      5.05s CPU      5.22s WALL (       1 calls)

     Called by init_run:
     wfcinit      :      1.00s CPU      1.02s WALL (       1 calls)
     potinit      :      1.71s CPU      1.78s WALL (       1 calls)

     Called by electrons:
     c_bands      :     68.79s CPU     69.47s WALL (      26 calls)
     sum_band     :     34.60s CPU     35.58s WALL (      26 calls)
     v_of_rho     :     29.81s CPU     30.78s WALL (      27 calls)
     newd         :     21.28s CPU     21.98s WALL (      27 calls)
     mix_rho      :    200.46s CPU    201.03s WALL (      26 calls)

     Called by c_bands:
     init_us_2    :      1.52s CPU      1.59s WALL (     330 calls)
     cegterg      :     66.62s CPU     66.96s WALL (     156 calls)

     Called by *egterg:
     h_psi        :     62.73s CPU     62.78s WALL (     552 calls)
     s_psi        :      0.40s CPU      0.40s WALL (     552 calls)
     g_psi        :      0.43s CPU      0.43s WALL (     390 calls)
     cdiaghg      :      0.15s CPU      0.17s WALL (     546 calls)

     Called by h_psi:
     add_vuspsi   :      0.39s CPU      0.39s WALL (     552 calls)

     General routines
     calbec       :      0.58s CPU      0.59s WALL (     720 calls)
     fft          :     25.67s CPU     26.19s WALL (     436 calls)
     ffts         :    108.20s CPU    108.28s WALL (    8410 calls)
     fftw         :     65.80s CPU     65.84s WALL (    6848 calls)
     interpolate  :      4.16s CPU      4.29s WALL (      53 calls)
     davcio       :      0.11s CPU      0.44s WALL (     492 calls)
 
     Parallel routines
 
     PWSCF        :  6m 8.98s CPU     6m14.32s WALL

 
   This run was terminated on:  18:38:55   4Sep2018            

=------------------------------------------------------------------------------=
   JOB DONE.
=------------------------------------------------------------------------------=
