
     Program PWSCF v.4.3        starts on 10Sep2018 at 16:14: 0 

     This program is part of the open-source Quantum ESPRESSO suite
     for quantum simulation of materials; please cite
         "P. Giannozzi et al., J. Phys.:Condens. Matter 21 395502 (2009);
          URL http://www.quantum-espresso.org", 
     in publications or presentations arising from this work. More details at
     http://www.quantum-espresso.org/wiki/index.php/Citing_Quantum-ESPRESSO

     Parallel version (MPI), running on    64 processors
     R & G space division:  proc/pool =   64

     Current dimensions of program PWSCF are:
     Max number of different atomic species (ntypx) = **
     Max number of k-points (npk) =  40000
     Max angular momentum in pseudopotentials (lmaxx) =  3
     Waiting for input...

     Subspace diagonalization in iterative solution of the eigenvalue problem:
     parallel, distributed-memory algorithm (size of sub-group:  5*  5 procs)

 
   Stick Mesh
   ----------
   nst = 10457,  nstw =  1155, nsts =  4177
               n.st   n.stw   n.sts    n.g    n.gw   n.gs
   min         163      18      65    9923     362    2501
   max         164      19      66    9926     366    2528
      10457    1155    4177  635163   23329  160693
 


     bravais-lattice index     =           14
     lattice parameter (a_0)   =      21.7375  a.u.
     unit-cell volume          =    7238.1051 (a.u.)^3
     number of atoms/cell      =           84
     number of atomic types    =            3
     number of electrons       =       672.00
     number of Kohn-Sham states=          403
     kinetic-energy cutoff     =      30.0000  Ry
     charge density cutoff     =     300.0000  Ry
     convergence threshold     =      1.0E-08
     mixing beta               =       0.3000
     number of iterations used =            8  local-TF  mixing
     Exchange-correlation      = SLA  PW   PBE  PBE (1434)
     EXX-fraction              =        0.00

     celldm(1)=  21.737520  celldm(2)=   0.927671  celldm(3)=   0.759628
     celldm(4)=   0.000000  celldm(5)=   0.000000  celldm(6)=   0.000000

     crystal axes: (cart. coord. in units of a_0)
               a(1) = (   1.000000   0.000000   0.000000 )  
               a(2) = (   0.000000   0.927671   0.000000 )  
               a(3) = (   0.000000   0.000000   0.759628 )  

     reciprocal axes: (cart. coord. in units 2 pi/a_0)
               b(1) = (  1.000000  0.000000  0.000000 )  
               b(2) = (  0.000000  1.077968  0.000000 )  
               b(3) = (  0.000000  0.000000  1.316434 )  


     PseudoPot. # 1 for O  read from file O.pbe-van_bm.UPF
     MD5 check sum: ca2828d9fb1f294809e918903b7648d1
     Pseudo is Ultrasoft, Zval =  6.0
     Generated by new atomic code, or converted to UPF format
     Using radial grid of  737 points,  4 beta functions with: 
                l(1) =   0
                l(2) =   0
                l(3) =   1
                l(4) =   1
     Q(r) pseudized with  8 coefficients,  rinner =    0.800   0.800   0.800


     PseudoPot. # 2 for V  read from file V.pbe-van-yufengl.UPF
     MD5 check sum: 105a573f738f0b837c178d5a4207921b
     Pseudo is Ultrasoft + core correction, Zval = 13.0
     Generated by new atomic code, or converted to UPF format
     Using radial grid of  853 points,  6 beta functions with: 
                l(1) =   0
                l(2) =   0
                l(3) =   1
                l(4) =   1
                l(5) =   2
                l(6) =   2
     Q(r) pseudized with  6 coefficients,  rinner =    1.000   1.000   1.000
                                                       1.000   1.000

     PseudoPot. # 3 for ox read from file O.pbe-van-dgp-1s1.UPF
     MD5 check sum: 2083901d62884ac3a15d661bda1575b3
     Pseudo is Ultrasoft, Zval =  7.0
     Generated by new atomic code, or converted to UPF format
     Using radial grid of  737 points,  4 beta functions with: 
                l(1) =   0
                l(2) =   0
                l(3) =   1
                l(4) =   1
     Q(r) pseudized with  8 coefficients,  rinner =    0.800   0.800   0.800


     atomic species   valence    mass     pseudopotential
        O              6.00    15.99900     O ( 1.00)
        V             13.00    50.94000     V ( 1.00)
        OX             7.00    15.99900     ox( 1.00)

     Starting magnetic structure 
     atomic species   magnetization
        O            0.000
        V            0.010
        OX           0.000

     LDA+U calculation, Hubbard_lmax = 2
     atomic species  L   Hubbard U  Hubbard alpha
        V            2    0.227846    0.000000

      2 Sym.Ops. (no inversion)


   Cartesian axes

     site n.     atom                  positions (a_0 units)
         1           V   tau(  1) = (   0.1483269   0.0000000   0.3388149  )
         2           V   tau(  2) = (   0.1483269   0.0000000   0.7186289  )
         3           V   tau(  3) = (   0.1483269   0.3092237   0.3388149  )
         4           V   tau(  4) = (   0.1483269   0.3092237   0.7186289  )
         5           V   tau(  5) = (   0.1483269   0.6184474   0.3388149  )
         6           V   tau(  6) = (   0.1483269   0.6184474   0.7186289  )
         7           V   tau(  7) = (   0.3516731   0.1546118   0.0409986  )
         8           V   tau(  8) = (   0.3516731   0.1546118   0.4208125  )
         9           V   tau(  9) = (   0.3516731   0.4638355   0.0409986  )
        10           V   tau( 10) = (   0.3516731   0.4638355   0.4208125  )
        11           V   tau( 11) = (   0.3516731   0.7730592   0.0409986  )
        12           V   tau( 12) = (   0.3516731   0.7730592   0.4208125  )
        13           V   tau( 13) = (   0.6483270   0.1546118   0.0409980  )
        14           V   tau( 14) = (   0.6483270   0.1546118   0.4208119  )
        15           V   tau( 15) = (   0.6483270   0.4638355   0.0409980  )
        16           V   tau( 16) = (   0.6483270   0.4638355   0.4208119  )
        17           V   tau( 17) = (   0.6483270   0.7730592   0.0409980  )
        18           V   tau( 18) = (   0.6483270   0.7730592   0.4208119  )
        19           V   tau( 19) = (   0.8516731   0.0000000   0.3388154  )
        20           V   tau( 20) = (   0.8516731   0.0000000   0.7186293  )
        21           V   tau( 21) = (   0.8516731   0.3092237   0.3388154  )
        22           V   tau( 22) = (   0.8516731   0.3092237   0.7186293  )
        23           V   tau( 23) = (   0.8516731   0.6184474   0.3388154  )
        24           V   tau( 24) = (   0.8516731   0.6184474   0.7186293  )
        25           OX  tau( 25) = (   0.1813361   0.1546118   0.3796345  )
        26           O   tau( 26) = (   0.1813361   0.1546118   0.7594484  )
        27           O   tau( 27) = (   0.1813361   0.4638355   0.3796345  )
        28           O   tau( 28) = (   0.1813361   0.4638355   0.7594484  )
        29           O   tau( 29) = (   0.1813361   0.7730592   0.3796345  )
        30           O   tau( 30) = (   0.1813361   0.7730592   0.7594484  )
        31           O   tau( 31) = (   0.3186639   0.0000000   0.0001795  )
        32           O   tau( 32) = (   0.3186639   0.0000000   0.3799935  )
        33           O   tau( 33) = (   0.3186639   0.3092237   0.0001795  )
        34           O   tau( 34) = (   0.3186639   0.3092237   0.3799935  )
        35           O   tau( 35) = (   0.3186639   0.6184474   0.0001795  )
        36           O   tau( 36) = (   0.3186639   0.6184474   0.3799935  )
        37           O   tau( 37) = (   0.6813362   0.0000000   0.0001795  )
        38           O   tau( 38) = (   0.6813362   0.0000000   0.3799935  )
        39           O   tau( 39) = (   0.6813362   0.3092237   0.0001795  )
        40           O   tau( 40) = (   0.6813362   0.3092237   0.3799935  )
        41           O   tau( 41) = (   0.6813362   0.6184474   0.0001795  )
        42           O   tau( 42) = (   0.6813362   0.6184474   0.3799935  )
        43           O   tau( 43) = (   0.8186639   0.1546118   0.3796345  )
        44           O   tau( 44) = (   0.8186639   0.1546118   0.7594485  )
        45           O   tau( 45) = (   0.8186639   0.4638355   0.3796345  )
        46           O   tau( 46) = (   0.8186639   0.4638355   0.7594485  )
        47           O   tau( 47) = (   0.8186639   0.7730592   0.3796345  )
        48           O   tau( 48) = (   0.8186639   0.7730592   0.7594485  )
        49           O   tau( 49) = (   0.8552736   0.0000000   0.2004983  )
        50           O   tau( 50) = (   0.8552736   0.0000000   0.5803123  )
        51           O   tau( 51) = (   0.8552736   0.3092237   0.2004983  )
        52           O   tau( 52) = (   0.8552736   0.3092237   0.5803123  )
        53           O   tau( 53) = (   0.8552736   0.6184474   0.2004983  )
        54           O   tau( 54) = (   0.8552736   0.6184474   0.5803123  )
        55           O   tau( 55) = (   0.6447264   0.1546118   0.1793162  )
        56           O   tau( 56) = (   0.6447264   0.1546118   0.5591301  )
        57           O   tau( 57) = (   0.6447264   0.4638355   0.1793162  )
        58           O   tau( 58) = (   0.6447264   0.4638355   0.5591301  )
        59           O   tau( 59) = (   0.6447264   0.7730592   0.1793162  )
        60           O   tau( 60) = (   0.6447264   0.7730592   0.5591301  )
        61           O   tau( 61) = (   0.3552736   0.1546118   0.1793157  )
        62           O   tau( 62) = (   0.3552736   0.1546118   0.5591297  )
        63           O   tau( 63) = (   0.3552736   0.4638355   0.1793157  )
        64           O   tau( 64) = (   0.3552736   0.4638355   0.5591297  )
        65           O   tau( 65) = (   0.3552736   0.7730592   0.1793157  )
        66           O   tau( 66) = (   0.3552736   0.7730592   0.5591297  )
        67           O   tau( 67) = (   0.5000000   0.1546118   0.3788864  )
        68           O   tau( 68) = (   0.5000000   0.1546118   0.7587004  )
        69           O   tau( 69) = (   0.5000000   0.4638355   0.3788864  )
        70           O   tau( 70) = (   0.5000000   0.4638355   0.7587004  )
        71           O   tau( 71) = (   0.5000000   0.7730592   0.3788864  )
        72           O   tau( 72) = (   0.5000000   0.7730592   0.7587004  )
        73           O   tau( 73) = (  -0.0000000   0.0000000   0.0009276  )
        74           O   tau( 74) = (  -0.0000000   0.0000000   0.3807415  )
        75           O   tau( 75) = (  -0.0000000   0.3092237   0.0009276  )
        76           O   tau( 76) = (  -0.0000000   0.3092237   0.3807415  )
        77           O   tau( 77) = (  -0.0000000   0.6184474   0.0009276  )
        78           O   tau( 78) = (  -0.0000000   0.6184474   0.3807415  )
        79           O   tau( 79) = (   0.1447264   0.0000000   0.2004987  )
        80           O   tau( 80) = (   0.1447264   0.0000000   0.5803126  )
        81           O   tau( 81) = (   0.1447264   0.3092237   0.2004987  )
        82           O   tau( 82) = (   0.1447264   0.3092237   0.5803126  )
        83           O   tau( 83) = (   0.1447264   0.6184474   0.2004987  )
        84           O   tau( 84) = (   0.1447264   0.6184474   0.5803126  )

     number of k points=    16  Fermi-Dirac smearing, width (Ry)=  0.0019
                       cart. coord. in units 2pi/a_0
        k(    1) = (   0.0000000   0.0000000   0.0000000), wk =   0.1250000
        k(    2) = (   0.0000000   0.0000000  -0.6582170), wk =   0.1250000
        k(    3) = (   0.0000000  -0.5389842   0.0000000), wk =   0.1250000
        k(    4) = (   0.0000000  -0.5389842  -0.6582170), wk =   0.1250000
        k(    5) = (  -0.5000000   0.0000000   0.0000000), wk =   0.1250000
        k(    6) = (  -0.5000000   0.0000000  -0.6582170), wk =   0.1250000
        k(    7) = (  -0.5000000  -0.5389842   0.0000000), wk =   0.1250000
        k(    8) = (  -0.5000000  -0.5389842  -0.6582170), wk =   0.1250000
        k(    9) = (   0.0000000   0.0000000   0.0000000), wk =   0.1250000
        k(   10) = (   0.0000000   0.0000000  -0.6582170), wk =   0.1250000
        k(   11) = (   0.0000000  -0.5389842   0.0000000), wk =   0.1250000
        k(   12) = (   0.0000000  -0.5389842  -0.6582170), wk =   0.1250000
        k(   13) = (  -0.5000000   0.0000000   0.0000000), wk =   0.1250000
        k(   14) = (  -0.5000000   0.0000000  -0.6582170), wk =   0.1250000
        k(   15) = (  -0.5000000  -0.5389842   0.0000000), wk =   0.1250000
        k(   16) = (  -0.5000000  -0.5389842  -0.6582170), wk =   0.1250000

     G cutoff = 3590.7196  ( 635163 G-vectors)     FFT grid: (120,120, 96)
     G cutoff = 1436.2879  ( 160693 G-vectors)  smooth grid: ( 75, 72, 60)

     Largest allocated arrays     est. size (Mb)     dimensions
        Kohn-Sham Wavefunctions         1.97 Mb     (    321, 403)
        Atomic wavefunctions            2.35 Mb     (    321, 480)
        NL pseudopotentials             4.47 Mb     (    321, 912)
        Each V/rho on FFT grid          0.88 Mb     (  28800,   2)
        Each G-vector array             0.08 Mb     (   9926)
        G-vector shells                 0.04 Mb     (   4974)
     Largest temporary arrays     est. size (Mb)     dimensions
        Auxiliary wavefunctions         7.90 Mb     (    321,1612)
        Each subspace H/S matrix       39.65 Mb     (   1612,1612)
        Each <psi_i|beta_j> matrix      5.61 Mb     (    912, 403)
        Arrays for rho mixing           3.52 Mb     (  28800,   8)

     Check: negative/imaginary core charge=   -0.000004    0.000000

     Initial potential from superposition of free atoms
     Check: negative starting charge=(component1):   -0.005916
     Check: negative starting charge=(component2):   -0.005794

     starting charge  671.97045, renormalised to  672.00000

     negative rho (up, down):  0.592E-02 0.579E-02

     Parameters of the lda+U calculation:
     Number of iteration with fixed ns =  0
     Starting ns and Hubbard U :
 enter write_ns
U( 1) =  0.0000      U( 2) =  3.1000      U( 3) =  0.0000
alpha( 1) =  0.0000      alpha( 2) =  0.0000      alpha( 3) =  0.0000
atom    1   Tr[ns(na)]=   3.0000000
atom    1   spin  1
eigenvalues:  0.6000000 0.6000000 0.6000000 0.6000000 0.6000000
 eigenvectors
 1   1.0000000  0.0000000  0.0000000  0.0000000  0.0000000
 2   0.0000000  1.0000000  0.0000000  0.0000000  0.0000000
 3   0.0000000  0.0000000  1.0000000  0.0000000  0.0000000
 4   0.0000000  0.0000000  0.0000000  1.0000000  0.0000000
 5   0.0000000  0.0000000  0.0000000  0.0000000  1.0000000
 occupations
 0.600  0.000  0.000  0.000  0.000
 0.000  0.600  0.000  0.000  0.000
 0.000  0.000  0.600  0.000  0.000
 0.000  0.000  0.000  0.600  0.000
 0.000  0.000  0.000  0.000  0.600
atom    1   spin  2
eigenvalues:  0.0000000 0.0000000 0.0000000 0.0000000 0.0000000
 eigenvectors
 1   1.0000000  0.0000000  0.0000000  0.0000000  0.0000000
 2   0.0000000  1.0000000  0.0000000  0.0000000  0.0000000
 3   0.0000000  0.0000000  1.0000000  0.0000000  0.0000000
 4   0.0000000  0.0000000  0.0000000  1.0000000  0.0000000
 5   0.0000000  0.0000000  0.0000000  0.0000000  1.0000000
 occupations
 0.000  0.000  0.000  0.000  0.000
 0.000  0.000  0.000  0.000  0.000
 0.000  0.000  0.000  0.000  0.000
 0.000  0.000  0.000  0.000  0.000
 0.000  0.000  0.000  0.000  0.000
atom    2   Tr[ns(na)]=   3.0000000
atom    2   spin  1
eigenvalues:  0.6000000 0.6000000 0.6000000 0.6000000 0.6000000
 eigenvectors
 1   1.0000000  0.0000000  0.0000000  0.0000000  0.0000000
 2   0.0000000  1.0000000  0.0000000  0.0000000  0.0000000
 3   0.0000000  0.0000000  1.0000000  0.0000000  0.0000000
 4   0.0000000  0.0000000  0.0000000  1.0000000  0.0000000
 5   0.0000000  0.0000000  0.0000000  0.0000000  1.0000000
 occupations
 0.600  0.000  0.000  0.000  0.000
 0.000  0.600  0.000  0.000  0.000
 0.000  0.000  0.600  0.000  0.000
 0.000  0.000  0.000  0.600  0.000
 0.000  0.000  0.000  0.000  0.600
atom    2   spin  2
eigenvalues:  0.0000000 0.0000000 0.0000000 0.0000000 0.0000000
 eigenvectors
 1   1.0000000  0.0000000  0.0000000  0.0000000  0.0000000
 2   0.0000000  1.0000000  0.0000000  0.0000000  0.0000000
 3   0.0000000  0.0000000  1.0000000  0.0000000  0.0000000
 4   0.0000000  0.0000000  0.0000000  1.0000000  0.0000000
 5   0.0000000  0.0000000  0.0000000  0.0000000  1.0000000
 occupations
 0.000  0.000  0.000  0.000  0.000
 0.000  0.000  0.000  0.000  0.000
 0.000  0.000  0.000  0.000  0.000
 0.000  0.000  0.000  0.000  0.000
 0.000  0.000  0.000  0.000  0.000
atom    3   Tr[ns(na)]=   3.0000000
atom    3   spin  1
eigenvalues:  0.6000000 0.6000000 0.6000000 0.6000000 0.6000000
 eigenvectors
 1   1.0000000  0.0000000  0.0000000  0.0000000  0.0000000
 2   0.0000000  1.0000000  0.0000000  0.0000000  0.0000000
 3   0.0000000  0.0000000  1.0000000  0.0000000  0.0000000
 4   0.0000000  0.0000000  0.0000000  1.0000000  0.0000000
 5   0.0000000  0.0000000  0.0000000  0.0000000  1.0000000
 occupations
 0.600  0.000  0.000  0.000  0.000
 0.000  0.600  0.000  0.000  0.000
 0.000  0.000  0.600  0.000  0.000
 0.000  0.000  0.000  0.600  0.000
 0.000  0.000  0.000  0.000  0.600
atom    3   spin  2
eigenvalues:  0.0000000 0.0000000 0.0000000 0.0000000 0.0000000
 eigenvectors
 1   1.0000000  0.0000000  0.0000000  0.0000000  0.0000000
 2   0.0000000  1.0000000  0.0000000  0.0000000  0.0000000
 3   0.0000000  0.0000000  1.0000000  0.0000000  0.0000000
 4   0.0000000  0.0000000  0.0000000  1.0000000  0.0000000
 5   0.0000000  0.0000000  0.0000000  0.0000000  1.0000000
 occupations
 0.000  0.000  0.000  0.000  0.000
 0.000  0.000  0.000  0.000  0.000
 0.000  0.000  0.000  0.000  0.000
 0.000  0.000  0.000  0.000  0.000
 0.000  0.000  0.000  0.000  0.000
atom    4   Tr[ns(na)]=   3.0000000
atom    4   spin  1
eigenvalues:  0.6000000 0.6000000 0.6000000 0.6000000 0.6000000
 eigenvectors
 1   1.0000000  0.0000000  0.0000000  0.0000000  0.0000000
 2   0.0000000  1.0000000  0.0000000  0.0000000  0.0000000
 3   0.0000000  0.0000000  1.0000000  0.0000000  0.0000000
 4   0.0000000  0.0000000  0.0000000  1.0000000  0.0000000
 5   0.0000000  0.0000000  0.0000000  0.0000000  1.0000000
 occupations
 0.600  0.000  0.000  0.000  0.000
 0.000  0.600  0.000  0.000  0.000
 0.000  0.000  0.600  0.000  0.000
 0.000  0.000  0.000  0.600  0.000
 0.000  0.000  0.000  0.000  0.600
atom    4   spin  2
eigenvalues:  0.0000000 0.0000000 0.0000000 0.0000000 0.0000000
 eigenvectors
 1   1.0000000  0.0000000  0.0000000  0.0000000  0.0000000
 2   0.0000000  1.0000000  0.0000000  0.0000000  0.0000000
 3   0.0000000  0.0000000  1.0000000  0.0000000  0.0000000
 4   0.0000000  0.0000000  0.0000000  1.0000000  0.0000000
 5   0.0000000  0.0000000  0.0000000  0.0000000  1.0000000
 occupations
 0.000  0.000  0.000  0.000  0.000
 0.000  0.000  0.000  0.000  0.000
 0.000  0.000  0.000  0.000  0.000
 0.000  0.000  0.000  0.000  0.000
 0.000  0.000  0.000  0.000  0.000
atom    5   Tr[ns(na)]=   3.0000000
atom    5   spin  1
eigenvalues:  0.6000000 0.6000000 0.6000000 0.6000000 0.6000000
 eigenvectors
 1   1.0000000  0.0000000  0.0000000  0.0000000  0.0000000
 2   0.0000000  1.0000000  0.0000000  0.0000000  0.0000000
 3   0.0000000  0.0000000  1.0000000  0.0000000  0.0000000
 4   0.0000000  0.0000000  0.0000000  1.0000000  0.0000000
 5   0.0000000  0.0000000  0.0000000  0.0000000  1.0000000
 occupations
 0.600  0.000  0.000  0.000  0.000
 0.000  0.600  0.000  0.000  0.000
 0.000  0.000  0.600  0.000  0.000
 0.000  0.000  0.000  0.600  0.000
 0.000  0.000  0.000  0.000  0.600
atom    5   spin  2
eigenvalues:  0.0000000 0.0000000 0.0000000 0.0000000 0.0000000
 eigenvectors
 1   1.0000000  0.0000000  0.0000000  0.0000000  0.0000000
 2   0.0000000  1.0000000  0.0000000  0.0000000  0.0000000
 3   0.0000000  0.0000000  1.0000000  0.0000000  0.0000000
 4   0.0000000  0.0000000  0.0000000  1.0000000  0.0000000
 5   0.0000000  0.0000000  0.0000000  0.0000000  1.0000000
 occupations
 0.000  0.000  0.000  0.000  0.000
 0.000  0.000  0.000  0.000  0.000
 0.000  0.000  0.000  0.000  0.000
 0.000  0.000  0.000  0.000  0.000
 0.000  0.000  0.000  0.000  0.000
atom    6   Tr[ns(na)]=   3.0000000
atom    6   spin  1
eigenvalues:  0.6000000 0.6000000 0.6000000 0.6000000 0.6000000
 eigenvectors
 1   1.0000000  0.0000000  0.0000000  0.0000000  0.0000000
 2   0.0000000  1.0000000  0.0000000  0.0000000  0.0000000
 3   0.0000000  0.0000000  1.0000000  0.0000000  0.0000000
 4   0.0000000  0.0000000  0.0000000  1.0000000  0.0000000
 5   0.0000000  0.0000000  0.0000000  0.0000000  1.0000000
 occupations
 0.600  0.000  0.000  0.000  0.000
 0.000  0.600  0.000  0.000  0.000
 0.000  0.000  0.600  0.000  0.000
 0.000  0.000  0.000  0.600  0.000
 0.000  0.000  0.000  0.000  0.600
atom    6   spin  2
eigenvalues:  0.0000000 0.0000000 0.0000000 0.0000000 0.0000000
 eigenvectors
 1   1.0000000  0.0000000  0.0000000  0.0000000  0.0000000
 2   0.0000000  1.0000000  0.0000000  0.0000000  0.0000000
 3   0.0000000  0.0000000  1.0000000  0.0000000  0.0000000
 4   0.0000000  0.0000000  0.0000000  1.0000000  0.0000000
 5   0.0000000  0.0000000  0.0000000  0.0000000  1.0000000
 occupations
 0.000  0.000  0.000  0.000  0.000
 0.000  0.000  0.000  0.000  0.000
 0.000  0.000  0.000  0.000  0.000
 0.000  0.000  0.000  0.000  0.000
 0.000  0.000  0.000  0.000  0.000
atom    7   Tr[ns(na)]=   3.0000000
atom    7   spin  1
eigenvalues:  0.6000000 0.6000000 0.6000000 0.6000000 0.6000000
 eigenvectors
 1   1.0000000  0.0000000  0.0000000  0.0000000  0.0000000
 2   0.0000000  1.0000000  0.0000000  0.0000000  0.0000000
 3   0.0000000  0.0000000  1.0000000  0.0000000  0.0000000
 4   0.0000000  0.0000000  0.0000000  1.0000000  0.0000000
 5   0.0000000  0.0000000  0.0000000  0.0000000  1.0000000
 occupations
 0.600  0.000  0.000  0.000  0.000
 0.000  0.600  0.000  0.000  0.000
 0.000  0.000  0.600  0.000  0.000
 0.000  0.000  0.000  0.600  0.000
 0.000  0.000  0.000  0.000  0.600
atom    7   spin  2
eigenvalues:  0.0000000 0.0000000 0.0000000 0.0000000 0.0000000
 eigenvectors
 1   1.0000000  0.0000000  0.0000000  0.0000000  0.0000000
 2   0.0000000  1.0000000  0.0000000  0.0000000  0.0000000
 3   0.0000000  0.0000000  1.0000000  0.0000000  0.0000000
 4   0.0000000  0.0000000  0.0000000  1.0000000  0.0000000
 5   0.0000000  0.0000000  0.0000000  0.0000000  1.0000000
 occupations
 0.000  0.000  0.000  0.000  0.000
 0.000  0.000  0.000  0.000  0.000
 0.000  0.000  0.000  0.000  0.000
 0.000  0.000  0.000  0.000  0.000
 0.000  0.000  0.000  0.000  0.000
atom    8   Tr[ns(na)]=   3.0000000
atom    8   spin  1
eigenvalues:  0.6000000 0.6000000 0.6000000 0.6000000 0.6000000
 eigenvectors
 1   1.0000000  0.0000000  0.0000000  0.0000000  0.0000000
 2   0.0000000  1.0000000  0.0000000  0.0000000  0.0000000
 3   0.0000000  0.0000000  1.0000000  0.0000000  0.0000000
 4   0.0000000  0.0000000  0.0000000  1.0000000  0.0000000
 5   0.0000000  0.0000000  0.0000000  0.0000000  1.0000000
 occupations
 0.600  0.000  0.000  0.000  0.000
 0.000  0.600  0.000  0.000  0.000
 0.000  0.000  0.600  0.000  0.000
 0.000  0.000  0.000  0.600  0.000
 0.000  0.000  0.000  0.000  0.600
atom    8   spin  2
eigenvalues:  0.0000000 0.0000000 0.0000000 0.0000000 0.0000000
 eigenvectors
 1   1.0000000  0.0000000  0.0000000  0.0000000  0.0000000
 2   0.0000000  1.0000000  0.0000000  0.0000000  0.0000000
 3   0.0000000  0.0000000  1.0000000  0.0000000  0.0000000
 4   0.0000000  0.0000000  0.0000000  1.0000000  0.0000000
 5   0.0000000  0.0000000  0.0000000  0.0000000  1.0000000
 occupations
 0.000  0.000  0.000  0.000  0.000
 0.000  0.000  0.000  0.000  0.000
 0.000  0.000  0.000  0.000  0.000
 0.000  0.000  0.000  0.000  0.000
 0.000  0.000  0.000  0.000  0.000
atom    9   Tr[ns(na)]=   3.0000000
atom    9   spin  1
eigenvalues:  0.6000000 0.6000000 0.6000000 0.6000000 0.6000000
 eigenvectors
 1   1.0000000  0.0000000  0.0000000  0.0000000  0.0000000
 2   0.0000000  1.0000000  0.0000000  0.0000000  0.0000000
 3   0.0000000  0.0000000  1.0000000  0.0000000  0.0000000
 4   0.0000000  0.0000000  0.0000000  1.0000000  0.0000000
 5   0.0000000  0.0000000  0.0000000  0.0000000  1.0000000
 occupations
 0.600  0.000  0.000  0.000  0.000
 0.000  0.600  0.000  0.000  0.000
 0.000  0.000  0.600  0.000  0.000
 0.000  0.000  0.000  0.600  0.000
 0.000  0.000  0.000  0.000  0.600
atom    9   spin  2
eigenvalues:  0.0000000 0.0000000 0.0000000 0.0000000 0.0000000
 eigenvectors
 1   1.0000000  0.0000000  0.0000000  0.0000000  0.0000000
 2   0.0000000  1.0000000  0.0000000  0.0000000  0.0000000
 3   0.0000000  0.0000000  1.0000000  0.0000000  0.0000000
 4   0.0000000  0.0000000  0.0000000  1.0000000  0.0000000
 5   0.0000000  0.0000000  0.0000000  0.0000000  1.0000000
 occupations
 0.000  0.000  0.000  0.000  0.000
 0.000  0.000  0.000  0.000  0.000
 0.000  0.000  0.000  0.000  0.000
 0.000  0.000  0.000  0.000  0.000
 0.000  0.000  0.000  0.000  0.000
atom   10   Tr[ns(na)]=   3.0000000
atom   10   spin  1
eigenvalues:  0.6000000 0.6000000 0.6000000 0.6000000 0.6000000
 eigenvectors
 1   1.0000000  0.0000000  0.0000000  0.0000000  0.0000000
 2   0.0000000  1.0000000  0.0000000  0.0000000  0.0000000
 3   0.0000000  0.0000000  1.0000000  0.0000000  0.0000000
 4   0.0000000  0.0000000  0.0000000  1.0000000  0.0000000
 5   0.0000000  0.0000000  0.0000000  0.0000000  1.0000000
 occupations
 0.600  0.000  0.000  0.000  0.000
 0.000  0.600  0.000  0.000  0.000
 0.000  0.000  0.600  0.000  0.000
 0.000  0.000  0.000  0.600  0.000
 0.000  0.000  0.000  0.000  0.600
atom   10   spin  2
eigenvalues:  0.0000000 0.0000000 0.0000000 0.0000000 0.0000000
 eigenvectors
 1   1.0000000  0.0000000  0.0000000  0.0000000  0.0000000
 2   0.0000000  1.0000000  0.0000000  0.0000000  0.0000000
 3   0.0000000  0.0000000  1.0000000  0.0000000  0.0000000
 4   0.0000000  0.0000000  0.0000000  1.0000000  0.0000000
 5   0.0000000  0.0000000  0.0000000  0.0000000  1.0000000
 occupations
 0.000  0.000  0.000  0.000  0.000
 0.000  0.000  0.000  0.000  0.000
 0.000  0.000  0.000  0.000  0.000
 0.000  0.000  0.000  0.000  0.000
 0.000  0.000  0.000  0.000  0.000
atom   11   Tr[ns(na)]=   3.0000000
atom   11   spin  1
eigenvalues:  0.6000000 0.6000000 0.6000000 0.6000000 0.6000000
 eigenvectors
 1   1.0000000  0.0000000  0.0000000  0.0000000  0.0000000
 2   0.0000000  1.0000000  0.0000000  0.0000000  0.0000000
 3   0.0000000  0.0000000  1.0000000  0.0000000  0.0000000
 4   0.0000000  0.0000000  0.0000000  1.0000000  0.0000000
 5   0.0000000  0.0000000  0.0000000  0.0000000  1.0000000
 occupations
 0.600  0.000  0.000  0.000  0.000
 0.000  0.600  0.000  0.000  0.000
 0.000  0.000  0.600  0.000  0.000
 0.000  0.000  0.000  0.600  0.000
 0.000  0.000  0.000  0.000  0.600
atom   11   spin  2
eigenvalues:  0.0000000 0.0000000 0.0000000 0.0000000 0.0000000
 eigenvectors
 1   1.0000000  0.0000000  0.0000000  0.0000000  0.0000000
 2   0.0000000  1.0000000  0.0000000  0.0000000  0.0000000
 3   0.0000000  0.0000000  1.0000000  0.0000000  0.0000000
 4   0.0000000  0.0000000  0.0000000  1.0000000  0.0000000
 5   0.0000000  0.0000000  0.0000000  0.0000000  1.0000000
 occupations
 0.000  0.000  0.000  0.000  0.000
 0.000  0.000  0.000  0.000  0.000
 0.000  0.000  0.000  0.000  0.000
 0.000  0.000  0.000  0.000  0.000
 0.000  0.000  0.000  0.000  0.000
atom   12   Tr[ns(na)]=   3.0000000
atom   12   spin  1
eigenvalues:  0.6000000 0.6000000 0.6000000 0.6000000 0.6000000
 eigenvectors
 1   1.0000000  0.0000000  0.0000000  0.0000000  0.0000000
 2   0.0000000  1.0000000  0.0000000  0.0000000  0.0000000
 3   0.0000000  0.0000000  1.0000000  0.0000000  0.0000000
 4   0.0000000  0.0000000  0.0000000  1.0000000  0.0000000
 5   0.0000000  0.0000000  0.0000000  0.0000000  1.0000000
 occupations
 0.600  0.000  0.000  0.000  0.000
 0.000  0.600  0.000  0.000  0.000
 0.000  0.000  0.600  0.000  0.000
 0.000  0.000  0.000  0.600  0.000
 0.000  0.000  0.000  0.000  0.600
atom   12   spin  2
eigenvalues:  0.0000000 0.0000000 0.0000000 0.0000000 0.0000000
 eigenvectors
 1   1.0000000  0.0000000  0.0000000  0.0000000  0.0000000
 2   0.0000000  1.0000000  0.0000000  0.0000000  0.0000000
 3   0.0000000  0.0000000  1.0000000  0.0000000  0.0000000
 4   0.0000000  0.0000000  0.0000000  1.0000000  0.0000000
 5   0.0000000  0.0000000  0.0000000  0.0000000  1.0000000
 occupations
 0.000  0.000  0.000  0.000  0.000
 0.000  0.000  0.000  0.000  0.000
 0.000  0.000  0.000  0.000  0.000
 0.000  0.000  0.000  0.000  0.000
 0.000  0.000  0.000  0.000  0.000
atom   13   Tr[ns(na)]=   3.0000000
atom   13   spin  1
eigenvalues:  0.6000000 0.6000000 0.6000000 0.6000000 0.6000000
 eigenvectors
 1   1.0000000  0.0000000  0.0000000  0.0000000  0.0000000
 2   0.0000000  1.0000000  0.0000000  0.0000000  0.0000000
 3   0.0000000  0.0000000  1.0000000  0.0000000  0.0000000
 4   0.0000000  0.0000000  0.0000000  1.0000000  0.0000000
 5   0.0000000  0.0000000  0.0000000  0.0000000  1.0000000
 occupations
 0.600  0.000  0.000  0.000  0.000
 0.000  0.600  0.000  0.000  0.000
 0.000  0.000  0.600  0.000  0.000
 0.000  0.000  0.000  0.600  0.000
 0.000  0.000  0.000  0.000  0.600
atom   13   spin  2
eigenvalues:  0.0000000 0.0000000 0.0000000 0.0000000 0.0000000
 eigenvectors
 1   1.0000000  0.0000000  0.0000000  0.0000000  0.0000000
 2   0.0000000  1.0000000  0.0000000  0.0000000  0.0000000
 3   0.0000000  0.0000000  1.0000000  0.0000000  0.0000000
 4   0.0000000  0.0000000  0.0000000  1.0000000  0.0000000
 5   0.0000000  0.0000000  0.0000000  0.0000000  1.0000000
 occupations
 0.000  0.000  0.000  0.000  0.000
 0.000  0.000  0.000  0.000  0.000
 0.000  0.000  0.000  0.000  0.000
 0.000  0.000  0.000  0.000  0.000
 0.000  0.000  0.000  0.000  0.000
atom   14   Tr[ns(na)]=   3.0000000
atom   14   spin  1
eigenvalues:  0.6000000 0.6000000 0.6000000 0.6000000 0.6000000
 eigenvectors
 1   1.0000000  0.0000000  0.0000000  0.0000000  0.0000000
 2   0.0000000  1.0000000  0.0000000  0.0000000  0.0000000
 3   0.0000000  0.0000000  1.0000000  0.0000000  0.0000000
 4   0.0000000  0.0000000  0.0000000  1.0000000  0.0000000
 5   0.0000000  0.0000000  0.0000000  0.0000000  1.0000000
 occupations
 0.600  0.000  0.000  0.000  0.000
 0.000  0.600  0.000  0.000  0.000
 0.000  0.000  0.600  0.000  0.000
 0.000  0.000  0.000  0.600  0.000
 0.000  0.000  0.000  0.000  0.600
atom   14   spin  2
eigenvalues:  0.0000000 0.0000000 0.0000000 0.0000000 0.0000000
 eigenvectors
 1   1.0000000  0.0000000  0.0000000  0.0000000  0.0000000
 2   0.0000000  1.0000000  0.0000000  0.0000000  0.0000000
 3   0.0000000  0.0000000  1.0000000  0.0000000  0.0000000
 4   0.0000000  0.0000000  0.0000000  1.0000000  0.0000000
 5   0.0000000  0.0000000  0.0000000  0.0000000  1.0000000
 occupations
 0.000  0.000  0.000  0.000  0.000
 0.000  0.000  0.000  0.000  0.000
 0.000  0.000  0.000  0.000  0.000
 0.000  0.000  0.000  0.000  0.000
 0.000  0.000  0.000  0.000  0.000
atom   15   Tr[ns(na)]=   3.0000000
atom   15   spin  1
eigenvalues:  0.6000000 0.6000000 0.6000000 0.6000000 0.6000000
 eigenvectors
 1   1.0000000  0.0000000  0.0000000  0.0000000  0.0000000
 2   0.0000000  1.0000000  0.0000000  0.0000000  0.0000000
 3   0.0000000  0.0000000  1.0000000  0.0000000  0.0000000
 4   0.0000000  0.0000000  0.0000000  1.0000000  0.0000000
 5   0.0000000  0.0000000  0.0000000  0.0000000  1.0000000
 occupations
 0.600  0.000  0.000  0.000  0.000
 0.000  0.600  0.000  0.000  0.000
 0.000  0.000  0.600  0.000  0.000
 0.000  0.000  0.000  0.600  0.000
 0.000  0.000  0.000  0.000  0.600
atom   15   spin  2
eigenvalues:  0.0000000 0.0000000 0.0000000 0.0000000 0.0000000
 eigenvectors
 1   1.0000000  0.0000000  0.0000000  0.0000000  0.0000000
 2   0.0000000  1.0000000  0.0000000  0.0000000  0.0000000
 3   0.0000000  0.0000000  1.0000000  0.0000000  0.0000000
 4   0.0000000  0.0000000  0.0000000  1.0000000  0.0000000
 5   0.0000000  0.0000000  0.0000000  0.0000000  1.0000000
 occupations
 0.000  0.000  0.000  0.000  0.000
 0.000  0.000  0.000  0.000  0.000
 0.000  0.000  0.000  0.000  0.000
 0.000  0.000  0.000  0.000  0.000
 0.000  0.000  0.000  0.000  0.000
atom   16   Tr[ns(na)]=   3.0000000
atom   16   spin  1
eigenvalues:  0.6000000 0.6000000 0.6000000 0.6000000 0.6000000
 eigenvectors
 1   1.0000000  0.0000000  0.0000000  0.0000000  0.0000000
 2   0.0000000  1.0000000  0.0000000  0.0000000  0.0000000
 3   0.0000000  0.0000000  1.0000000  0.0000000  0.0000000
 4   0.0000000  0.0000000  0.0000000  1.0000000  0.0000000
 5   0.0000000  0.0000000  0.0000000  0.0000000  1.0000000
 occupations
 0.600  0.000  0.000  0.000  0.000
 0.000  0.600  0.000  0.000  0.000
 0.000  0.000  0.600  0.000  0.000
 0.000  0.000  0.000  0.600  0.000
 0.000  0.000  0.000  0.000  0.600
atom   16   spin  2
eigenvalues:  0.0000000 0.0000000 0.0000000 0.0000000 0.0000000
 eigenvectors
 1   1.0000000  0.0000000  0.0000000  0.0000000  0.0000000
 2   0.0000000  1.0000000  0.0000000  0.0000000  0.0000000
 3   0.0000000  0.0000000  1.0000000  0.0000000  0.0000000
 4   0.0000000  0.0000000  0.0000000  1.0000000  0.0000000
 5   0.0000000  0.0000000  0.0000000  0.0000000  1.0000000
 occupations
 0.000  0.000  0.000  0.000  0.000
 0.000  0.000  0.000  0.000  0.000
 0.000  0.000  0.000  0.000  0.000
 0.000  0.000  0.000  0.000  0.000
 0.000  0.000  0.000  0.000  0.000
atom   17   Tr[ns(na)]=   3.0000000
atom   17   spin  1
eigenvalues:  0.6000000 0.6000000 0.6000000 0.6000000 0.6000000
 eigenvectors
 1   1.0000000  0.0000000  0.0000000  0.0000000  0.0000000
 2   0.0000000  1.0000000  0.0000000  0.0000000  0.0000000
 3   0.0000000  0.0000000  1.0000000  0.0000000  0.0000000
 4   0.0000000  0.0000000  0.0000000  1.0000000  0.0000000
 5   0.0000000  0.0000000  0.0000000  0.0000000  1.0000000
 occupations
 0.600  0.000  0.000  0.000  0.000
 0.000  0.600  0.000  0.000  0.000
 0.000  0.000  0.600  0.000  0.000
 0.000  0.000  0.000  0.600  0.000
 0.000  0.000  0.000  0.000  0.600
atom   17   spin  2
eigenvalues:  0.0000000 0.0000000 0.0000000 0.0000000 0.0000000
 eigenvectors
 1   1.0000000  0.0000000  0.0000000  0.0000000  0.0000000
 2   0.0000000  1.0000000  0.0000000  0.0000000  0.0000000
 3   0.0000000  0.0000000  1.0000000  0.0000000  0.0000000
 4   0.0000000  0.0000000  0.0000000  1.0000000  0.0000000
 5   0.0000000  0.0000000  0.0000000  0.0000000  1.0000000
 occupations
 0.000  0.000  0.000  0.000  0.000
 0.000  0.000  0.000  0.000  0.000
 0.000  0.000  0.000  0.000  0.000
 0.000  0.000  0.000  0.000  0.000
 0.000  0.000  0.000  0.000  0.000
atom   18   Tr[ns(na)]=   3.0000000
atom   18   spin  1
eigenvalues:  0.6000000 0.6000000 0.6000000 0.6000000 0.6000000
 eigenvectors
 1   1.0000000  0.0000000  0.0000000  0.0000000  0.0000000
 2   0.0000000  1.0000000  0.0000000  0.0000000  0.0000000
 3   0.0000000  0.0000000  1.0000000  0.0000000  0.0000000
 4   0.0000000  0.0000000  0.0000000  1.0000000  0.0000000
 5   0.0000000  0.0000000  0.0000000  0.0000000  1.0000000
 occupations
 0.600  0.000  0.000  0.000  0.000
 0.000  0.600  0.000  0.000  0.000
 0.000  0.000  0.600  0.000  0.000
 0.000  0.000  0.000  0.600  0.000
 0.000  0.000  0.000  0.000  0.600
atom   18   spin  2
eigenvalues:  0.0000000 0.0000000 0.0000000 0.0000000 0.0000000
 eigenvectors
 1   1.0000000  0.0000000  0.0000000  0.0000000  0.0000000
 2   0.0000000  1.0000000  0.0000000  0.0000000  0.0000000
 3   0.0000000  0.0000000  1.0000000  0.0000000  0.0000000
 4   0.0000000  0.0000000  0.0000000  1.0000000  0.0000000
 5   0.0000000  0.0000000  0.0000000  0.0000000  1.0000000
 occupations
 0.000  0.000  0.000  0.000  0.000
 0.000  0.000  0.000  0.000  0.000
 0.000  0.000  0.000  0.000  0.000
 0.000  0.000  0.000  0.000  0.000
 0.000  0.000  0.000  0.000  0.000
atom   19   Tr[ns(na)]=   3.0000000
atom   19   spin  1
eigenvalues:  0.6000000 0.6000000 0.6000000 0.6000000 0.6000000
 eigenvectors
 1   1.0000000  0.0000000  0.0000000  0.0000000  0.0000000
 2   0.0000000  1.0000000  0.0000000  0.0000000  0.0000000
 3   0.0000000  0.0000000  1.0000000  0.0000000  0.0000000
 4   0.0000000  0.0000000  0.0000000  1.0000000  0.0000000
 5   0.0000000  0.0000000  0.0000000  0.0000000  1.0000000
 occupations
 0.600  0.000  0.000  0.000  0.000
 0.000  0.600  0.000  0.000  0.000
 0.000  0.000  0.600  0.000  0.000
 0.000  0.000  0.000  0.600  0.000
 0.000  0.000  0.000  0.000  0.600
atom   19   spin  2
eigenvalues:  0.0000000 0.0000000 0.0000000 0.0000000 0.0000000
 eigenvectors
 1   1.0000000  0.0000000  0.0000000  0.0000000  0.0000000
 2   0.0000000  1.0000000  0.0000000  0.0000000  0.0000000
 3   0.0000000  0.0000000  1.0000000  0.0000000  0.0000000
 4   0.0000000  0.0000000  0.0000000  1.0000000  0.0000000
 5   0.0000000  0.0000000  0.0000000  0.0000000  1.0000000
 occupations
 0.000  0.000  0.000  0.000  0.000
 0.000  0.000  0.000  0.000  0.000
 0.000  0.000  0.000  0.000  0.000
 0.000  0.000  0.000  0.000  0.000
 0.000  0.000  0.000  0.000  0.000
atom   20   Tr[ns(na)]=   3.0000000
atom   20   spin  1
eigenvalues:  0.6000000 0.6000000 0.6000000 0.6000000 0.6000000
 eigenvectors
 1   1.0000000  0.0000000  0.0000000  0.0000000  0.0000000
 2   0.0000000  1.0000000  0.0000000  0.0000000  0.0000000
 3   0.0000000  0.0000000  1.0000000  0.0000000  0.0000000
 4   0.0000000  0.0000000  0.0000000  1.0000000  0.0000000
 5   0.0000000  0.0000000  0.0000000  0.0000000  1.0000000
 occupations
 0.600  0.000  0.000  0.000  0.000
 0.000  0.600  0.000  0.000  0.000
 0.000  0.000  0.600  0.000  0.000
 0.000  0.000  0.000  0.600  0.000
 0.000  0.000  0.000  0.000  0.600
atom   20   spin  2
eigenvalues:  0.0000000 0.0000000 0.0000000 0.0000000 0.0000000
 eigenvectors
 1   1.0000000  0.0000000  0.0000000  0.0000000  0.0000000
 2   0.0000000  1.0000000  0.0000000  0.0000000  0.0000000
 3   0.0000000  0.0000000  1.0000000  0.0000000  0.0000000
 4   0.0000000  0.0000000  0.0000000  1.0000000  0.0000000
 5   0.0000000  0.0000000  0.0000000  0.0000000  1.0000000
 occupations
 0.000  0.000  0.000  0.000  0.000
 0.000  0.000  0.000  0.000  0.000
 0.000  0.000  0.000  0.000  0.000
 0.000  0.000  0.000  0.000  0.000
 0.000  0.000  0.000  0.000  0.000
atom   21   Tr[ns(na)]=   3.0000000
atom   21   spin  1
eigenvalues:  0.6000000 0.6000000 0.6000000 0.6000000 0.6000000
 eigenvectors
 1   1.0000000  0.0000000  0.0000000  0.0000000  0.0000000
 2   0.0000000  1.0000000  0.0000000  0.0000000  0.0000000
 3   0.0000000  0.0000000  1.0000000  0.0000000  0.0000000
 4   0.0000000  0.0000000  0.0000000  1.0000000  0.0000000
 5   0.0000000  0.0000000  0.0000000  0.0000000  1.0000000
 occupations
 0.600  0.000  0.000  0.000  0.000
 0.000  0.600  0.000  0.000  0.000
 0.000  0.000  0.600  0.000  0.000
 0.000  0.000  0.000  0.600  0.000
 0.000  0.000  0.000  0.000  0.600
atom   21   spin  2
eigenvalues:  0.0000000 0.0000000 0.0000000 0.0000000 0.0000000
 eigenvectors
 1   1.0000000  0.0000000  0.0000000  0.0000000  0.0000000
 2   0.0000000  1.0000000  0.0000000  0.0000000  0.0000000
 3   0.0000000  0.0000000  1.0000000  0.0000000  0.0000000
 4   0.0000000  0.0000000  0.0000000  1.0000000  0.0000000
 5   0.0000000  0.0000000  0.0000000  0.0000000  1.0000000
 occupations
 0.000  0.000  0.000  0.000  0.000
 0.000  0.000  0.000  0.000  0.000
 0.000  0.000  0.000  0.000  0.000
 0.000  0.000  0.000  0.000  0.000
 0.000  0.000  0.000  0.000  0.000
atom   22   Tr[ns(na)]=   3.0000000
atom   22   spin  1
eigenvalues:  0.6000000 0.6000000 0.6000000 0.6000000 0.6000000
 eigenvectors
 1   1.0000000  0.0000000  0.0000000  0.0000000  0.0000000
 2   0.0000000  1.0000000  0.0000000  0.0000000  0.0000000
 3   0.0000000  0.0000000  1.0000000  0.0000000  0.0000000
 4   0.0000000  0.0000000  0.0000000  1.0000000  0.0000000
 5   0.0000000  0.0000000  0.0000000  0.0000000  1.0000000
 occupations
 0.600  0.000  0.000  0.000  0.000
 0.000  0.600  0.000  0.000  0.000
 0.000  0.000  0.600  0.000  0.000
 0.000  0.000  0.000  0.600  0.000
 0.000  0.000  0.000  0.000  0.600
atom   22   spin  2
eigenvalues:  0.0000000 0.0000000 0.0000000 0.0000000 0.0000000
 eigenvectors
 1   1.0000000  0.0000000  0.0000000  0.0000000  0.0000000
 2   0.0000000  1.0000000  0.0000000  0.0000000  0.0000000
 3   0.0000000  0.0000000  1.0000000  0.0000000  0.0000000
 4   0.0000000  0.0000000  0.0000000  1.0000000  0.0000000
 5   0.0000000  0.0000000  0.0000000  0.0000000  1.0000000
 occupations
 0.000  0.000  0.000  0.000  0.000
 0.000  0.000  0.000  0.000  0.000
 0.000  0.000  0.000  0.000  0.000
 0.000  0.000  0.000  0.000  0.000
 0.000  0.000  0.000  0.000  0.000
atom   23   Tr[ns(na)]=   3.0000000
atom   23   spin  1
eigenvalues:  0.6000000 0.6000000 0.6000000 0.6000000 0.6000000
 eigenvectors
 1   1.0000000  0.0000000  0.0000000  0.0000000  0.0000000
 2   0.0000000  1.0000000  0.0000000  0.0000000  0.0000000
 3   0.0000000  0.0000000  1.0000000  0.0000000  0.0000000
 4   0.0000000  0.0000000  0.0000000  1.0000000  0.0000000
 5   0.0000000  0.0000000  0.0000000  0.0000000  1.0000000
 occupations
 0.600  0.000  0.000  0.000  0.000
 0.000  0.600  0.000  0.000  0.000
 0.000  0.000  0.600  0.000  0.000
 0.000  0.000  0.000  0.600  0.000
 0.000  0.000  0.000  0.000  0.600
atom   23   spin  2
eigenvalues:  0.0000000 0.0000000 0.0000000 0.0000000 0.0000000
 eigenvectors
 1   1.0000000  0.0000000  0.0000000  0.0000000  0.0000000
 2   0.0000000  1.0000000  0.0000000  0.0000000  0.0000000
 3   0.0000000  0.0000000  1.0000000  0.0000000  0.0000000
 4   0.0000000  0.0000000  0.0000000  1.0000000  0.0000000
 5   0.0000000  0.0000000  0.0000000  0.0000000  1.0000000
 occupations
 0.000  0.000  0.000  0.000  0.000
 0.000  0.000  0.000  0.000  0.000
 0.000  0.000  0.000  0.000  0.000
 0.000  0.000  0.000  0.000  0.000
 0.000  0.000  0.000  0.000  0.000
atom   24   Tr[ns(na)]=   3.0000000
atom   24   spin  1
eigenvalues:  0.6000000 0.6000000 0.6000000 0.6000000 0.6000000
 eigenvectors
 1   1.0000000  0.0000000  0.0000000  0.0000000  0.0000000
 2   0.0000000  1.0000000  0.0000000  0.0000000  0.0000000
 3   0.0000000  0.0000000  1.0000000  0.0000000  0.0000000
 4   0.0000000  0.0000000  0.0000000  1.0000000  0.0000000
 5   0.0000000  0.0000000  0.0000000  0.0000000  1.0000000
 occupations
 0.600  0.000  0.000  0.000  0.000
 0.000  0.600  0.000  0.000  0.000
 0.000  0.000  0.600  0.000  0.000
 0.000  0.000  0.000  0.600  0.000
 0.000  0.000  0.000  0.000  0.600
atom   24   spin  2
eigenvalues:  0.0000000 0.0000000 0.0000000 0.0000000 0.0000000
 eigenvectors
 1   1.0000000  0.0000000  0.0000000  0.0000000  0.0000000
 2   0.0000000  1.0000000  0.0000000  0.0000000  0.0000000
 3   0.0000000  0.0000000  1.0000000  0.0000000  0.0000000
 4   0.0000000  0.0000000  0.0000000  1.0000000  0.0000000
 5   0.0000000  0.0000000  0.0000000  0.0000000  1.0000000
 occupations
 0.000  0.000  0.000  0.000  0.000
 0.000  0.000  0.000  0.000  0.000
 0.000  0.000  0.000  0.000  0.000
 0.000  0.000  0.000  0.000  0.000
 0.000  0.000  0.000  0.000  0.000
nsum =  72.0000000
 exit write_ns
 Atomic wfc used for LDA+U Projector are NOT orthogonalized
     Starting wfc are  480 atomic wfcs

     total cpu time spent up to now is     27.23 secs

     per-process dynamical memory:   111.0 Mb

     Self-consistent Calculation

     iteration #  1     ecut=    30.00 Ry     beta=0.30
     Davidson diagonalization with overlap
     ethr =  1.00E-02,  avg # of iterations =  2.0
 enter write_ns
U( 1) =  0.0000      U( 2) =  3.1000      U( 3) =  0.0000
alpha( 1) =  0.0000      alpha( 2) =  0.0000      alpha( 3) =  0.0000
atom    1   Tr[ns(na)]=   3.5045218
atom    1   spin  1
eigenvalues:  0.2721673 0.3758060 0.4137465 0.4347866 0.4859818
 eigenvectors
 1  -0.0918747 -0.0084377 -0.1095535 -0.2685425  0.9525601
 2  -0.1673815  0.1887061 -0.6230546 -0.6856380 -0.2794224
 3   0.1094122  0.8529796  0.4621933 -0.2161608  0.0103258
 4   0.0187961  0.4810006 -0.6011388  0.6276528  0.1138826
 5  -0.9753041  0.0733685  0.1575135  0.1308127 -0.0384246
 occupations
 0.480 -0.004 -0.017 -0.017  0.013
-0.004  0.418 -0.001  0.012  0.004
-0.017 -0.001  0.407 -0.027  0.006
-0.017  0.012 -0.027  0.395  0.030
 0.013  0.004  0.006  0.030  0.283
atom    1   spin  2
eigenvalues:  0.1847479 0.2748209 0.3049301 0.3474838 0.4100509
 eigenvectors
 1  -0.0675305 -0.0115828 -0.0215877 -0.1742290  0.9820813
 2  -0.1401163  0.1825400 -0.8313059 -0.4931071 -0.1132363
 3  -0.0462869 -0.8900029 -0.3567660  0.2787301  0.0279270
 4  -0.1633626 -0.4088183  0.4202508 -0.7800545 -0.1452050
 5   0.9731276 -0.0854836 -0.0676147 -0.2007838  0.0287997
 occupations
 0.404 -0.005 -0.014 -0.019  0.011
-0.005  0.312 -0.002  0.018  0.004
-0.014 -0.002  0.292 -0.025 -0.003
-0.019  0.018 -0.025  0.324  0.023
 0.011  0.004 -0.003  0.023  0.190
atom    2   Tr[ns(na)]=   2.9375308
atom    2   spin  1
eigenvalues:  0.2244648 0.3000055 0.3085993 0.3840956 0.4121466
 eigenvectors
 1  -0.0116206 -0.0146976  0.0990787 -0.0129552  0.9948188
 2  -0.0072541  0.0589339  0.9930435  0.0279882 -0.0977515
 3  -0.0042400 -0.9633812  0.0481816  0.2632723 -0.0156528
 4  -0.2627460 -0.2509546  0.0369810 -0.9306497 -0.0225795
 5  -0.9647585  0.0723138 -0.0189435  0.2522453 -0.0050296
 occupations
 0.410 -0.002  0.001 -0.007  0.002
-0.002  0.314 -0.001  0.019  0.002
 0.001 -0.001  0.299 -0.003 -0.008
-0.007  0.019 -0.003  0.381  0.003
 0.002  0.002 -0.008  0.003  0.225
atom    2   spin  2
eigenvalues:  0.1643192 0.2293847 0.2351480 0.3259761 0.3533911
 eigenvectors
 1  -0.0082993 -0.0130392  0.1696535 -0.0067088  0.9853597
 2  -0.0026288  0.0740499  0.9828840  0.0127832 -0.1681825
 3  -0.0173239 -0.9667435  0.0657300  0.2455127 -0.0225842
 4  -0.2693216 -0.2303734  0.0260256 -0.9345884 -0.0161610
 5  -0.9628551  0.0817421 -0.0126081  0.2570207 -0.0031073
 occupations
 0.351 -0.004  0.001 -0.006  0.001
-0.004  0.241 -0.001  0.022  0.001
 0.001 -0.001  0.228 -0.003 -0.011
-0.006  0.022 -0.003  0.322  0.002
 0.001  0.001 -0.011  0.002  0.166
atom    3   Tr[ns(na)]=   3.5045218
atom    3   spin  1
eigenvalues:  0.2721673 0.3758060 0.4137465 0.4347866 0.4859818
 eigenvectors
 1   0.0918747  0.0084377 -0.1095535  0.2685425  0.9525601
 2  -0.1673815  0.1887061  0.6230546 -0.6856380  0.2794224
 3   0.1094122  0.8529796 -0.4621933 -0.2161608 -0.0103258
 4  -0.0187961 -0.4810006 -0.6011388 -0.6276528  0.1138826
 5  -0.9753041  0.0733685 -0.1575135  0.1308127  0.0384246
 occupations
 0.480 -0.004  0.017 -0.017 -0.013
-0.004  0.418  0.001  0.012 -0.004
 0.017  0.001  0.407  0.027  0.006
-0.017  0.012  0.027  0.395 -0.030
-0.013 -0.004  0.006 -0.030  0.283
atom    3   spin  2
eigenvalues:  0.1847479 0.2748209 0.3049301 0.3474838 0.4100509
 eigenvectors
 1   0.0675305  0.0115828 -0.0215877  0.1742290  0.9820813
 2  -0.1401163  0.1825400  0.8313059 -0.4931071  0.1132363
 3   0.0462869  0.8900029 -0.3567660 -0.2787301  0.0279270
 4  -0.1633626 -0.4088183 -0.4202508 -0.7800545  0.1452050
 5   0.9731276 -0.0854836  0.0676147 -0.2007838 -0.0287997
 occupations
 0.404 -0.005  0.014 -0.019 -0.011
-0.005  0.312  0.002  0.018 -0.004
 0.014  0.002  0.292  0.025 -0.003
-0.019  0.018  0.025  0.324 -0.023
-0.011 -0.004 -0.003 -0.023  0.190
atom    4   Tr[ns(na)]=   2.9375308
atom    4   spin  1
eigenvalues:  0.2244648 0.3000055 0.3085993 0.3840956 0.4121466
 eigenvectors
 1   0.0116206  0.0146976  0.0990787  0.0129552  0.9948188
 2  -0.0072541  0.0589339 -0.9930435  0.0279882  0.0977515
 3   0.0042400  0.9633812  0.0481816 -0.2632723 -0.0156528
 4  -0.2627460 -0.2509546 -0.0369810 -0.9306497  0.0225795
 5  -0.9647585  0.0723138  0.0189435  0.2522453  0.0050296
 occupations
 0.410 -0.002 -0.001 -0.007 -0.002
-0.002  0.314  0.001  0.019 -0.002
-0.001  0.001  0.299  0.003 -0.008
-0.007  0.019  0.003  0.381 -0.003
-0.002 -0.002 -0.008 -0.003  0.225
atom    4   spin  2
eigenvalues:  0.1643192 0.2293847 0.2351480 0.3259761 0.3533911
 eigenvectors
 1   0.0082993  0.0130392  0.1696535  0.0067088  0.9853597
 2  -0.0026288  0.0740499 -0.9828840  0.0127832  0.1681825
 3   0.0173239  0.9667435  0.0657300 -0.2455127 -0.0225842
 4  -0.2693216 -0.2303734 -0.0260256 -0.9345884  0.0161610
 5  -0.9628551  0.0817421  0.0126081  0.2570207  0.0031073
 occupations
 0.351 -0.004 -0.001 -0.006 -0.001
-0.004  0.241  0.001  0.022 -0.001
-0.001  0.001  0.228  0.003 -0.011
-0.006  0.022  0.003  0.322 -0.002
-0.001 -0.001 -0.011 -0.002  0.166
atom    5   Tr[ns(na)]=   2.9886951
atom    5   spin  1
eigenvalues:  0.2086244 0.3188303 0.3285770 0.3724127 0.4307093
 eigenvectors
 1  -0.0000000 -0.0000000  0.0664484  0.0000000  0.9977899
 2  -0.0000000 -0.0000000 -0.9977899  0.0000000  0.0664484
 3   0.0272798 -0.8945716  0.0000000  0.4460914 -0.0000000
 4   0.1969467  0.4423204  0.0000000  0.8749655 -0.0000000
 5  -0.9800346  0.0639874  0.0000000  0.1882493 -0.0000000
 occupations
 0.428 -0.003 -0.000 -0.011  0.000
-0.003  0.338 -0.000  0.018  0.000
-0.000 -0.000  0.318  0.000 -0.007
-0.011  0.018  0.000  0.366 -0.000
 0.000  0.000 -0.007 -0.000  0.209
atom    5   spin  2
eigenvalues:  0.1546914 0.2399322 0.2495078 0.3165388 0.3688712
 eigenvectors
 1  -0.0000000 -0.0000000  0.1223155  0.0000000  0.9924913
 2  -0.0000000 -0.0000000 -0.9924913  0.0000000  0.1223155
 3  -0.0055713 -0.9474896  0.0000000  0.3197379 -0.0000000
 4   0.2080967  0.3116444  0.0000000  0.9271319 -0.0000000
 5  -0.9780924  0.0717017  0.0000000  0.1954332 -0.0000000
 occupations
 0.367 -0.004 -0.000 -0.010  0.000
-0.004  0.257 -0.000  0.021  0.000
-0.000 -0.000  0.239  0.000 -0.010
-0.010  0.021  0.000  0.312 -0.000
 0.000  0.000 -0.010 -0.000  0.156
atom    6   Tr[ns(na)]=   2.9829144
atom    6   spin  1
eigenvalues:  0.2138642 0.3152531 0.3224138 0.3779445 0.4251234
 eigenvectors
 1  -0.0000000 -0.0000000  0.0923425  0.0000000  0.9957273
 2  -0.0000000 -0.0000000 -0.9957273  0.0000000  0.0923425
 3   0.0019980 -0.9377748  0.0000000  0.3472382 -0.0000000
 4   0.1793737  0.3419431  0.0000000  0.9224424 -0.0000000
 5  -0.9837790  0.0604424  0.0000000  0.1688953 -0.0000000
 occupations
 0.424 -0.003 -0.000 -0.008  0.000
-0.003  0.329 -0.000  0.019  0.000
-0.000 -0.000  0.314  0.000 -0.009
-0.008  0.019  0.000  0.373 -0.000
 0.000  0.000 -0.009 -0.000  0.215
atom    6   spin  2
eigenvalues:  0.1583080 0.2392858 0.2447630 0.3214539 0.3645047
 eigenvectors
 1  -0.0000000 -0.0000000  0.1506770  0.0000000  0.9885831
 2  -0.0000000 -0.0000000 -0.9885831  0.0000000  0.1506770
 3  -0.0156607 -0.9590803  0.0000000  0.2827008 -0.0000000
 4   0.1912180  0.2746443  0.0000000  0.9423408 -0.0000000
 5  -0.9814226  0.0688153  0.0000000  0.1790923 -0.0000000
 occupations
 0.363 -0.004 -0.000 -0.007  0.000
-0.004  0.251 -0.000  0.021  0.000
-0.000 -0.000  0.237  0.000 -0.012
-0.007  0.021  0.000  0.317 -0.000
 0.000  0.000 -0.012 -0.000  0.160
atom    7   Tr[ns(na)]=   2.9520621
atom    7   spin  1
eigenvalues:  0.2280151 0.3037587 0.3073137 0.3845732 0.4143726
 eigenvectors
 1  -0.0000000 -0.0000000  0.0806016  0.0000000  0.9967464
 2  -0.0000000 -0.0000000 -0.9967464  0.0000000  0.0806016
 3   0.0072079 -0.9539214  0.0000000  0.2999701 -0.0000000
 4   0.2435150  0.2926217  0.0000000  0.9247016 -0.0000000
 5  -0.9698704  0.0663821  0.0000000  0.2344033 -0.0000000
 occupations
 0.413 -0.001 -0.000 -0.007  0.000
-0.001  0.314 -0.000  0.023  0.000
-0.000 -0.000  0.303  0.000 -0.006
-0.007  0.023  0.000  0.379 -0.000
 0.000  0.000 -0.006 -0.000  0.229
atom    7   spin  2
eigenvalues:  0.1665495 0.2318398 0.2342472 0.3261800 0.3552123
 eigenvectors
 1  -0.0000000 -0.0000000  0.1539726  0.0000000  0.9880751
 2  -0.0000000 -0.0000000 -0.9880751  0.0000000  0.1539726
 3  -0.0108461 -0.9627656  0.0000000  0.2701199 -0.0000000
 4   0.2527683  0.2587228  0.0000000  0.9322932 -0.0000000
 5  -0.9674660  0.0783895  0.0000000  0.2405505 -0.0000000
 occupations
 0.353 -0.003 -0.000 -0.006  0.000
-0.003  0.241 -0.000  0.024  0.000
-0.000 -0.000  0.230  0.000 -0.010
-0.006  0.024  0.000  0.321 -0.000
 0.000  0.000 -0.010 -0.000  0.168
atom    8   Tr[ns(na)]=   3.4908339
atom    8   spin  1
eigenvalues:  0.2988834 0.3693091 0.3904020 0.4309955 0.4817197
 eigenvectors
 1  -0.0000000 -0.0000000 -0.0146226  0.0000000  0.9998931
 2   0.0226061 -0.5735799 -0.0000000  0.8188376 -0.0000000
 3   0.0000000 -0.0000000  0.9998931  0.0000000  0.0146226
 4   0.3407709  0.7744190 -0.0000000  0.5330576  0.0000000
 5   0.9398745 -0.2669857 -0.0000000 -0.2129659  0.0000000
 occupations
 0.476 -0.012 -0.000 -0.011  0.000
-0.012  0.414 -0.000  0.032  0.000
-0.000 -0.000  0.390  0.000  0.001
-0.011  0.032  0.000  0.392 -0.000
 0.000  0.000  0.001 -0.000  0.299
atom    8   spin  2
eigenvalues:  0.2038674 0.2725116 0.2890214 0.3487677 0.4053561
 eigenvectors
 1  -0.0000000 -0.0000000  0.0765750  0.0000000  0.9970638
 2  -0.0466254 -0.7799584 -0.0000000  0.6240921 -0.0000000
 3  -0.0000000  0.0000000 -0.9970638 -0.0000000  0.0765750
 4   0.2453367  0.5966936 -0.0000000  0.7640462 -0.0000000
 5  -0.9683161  0.1887366  0.0000000  0.1635313 -0.0000000
 occupations
 0.402 -0.013 -0.000 -0.007  0.000
-0.013  0.304 -0.000  0.039  0.000
-0.000 -0.000  0.289  0.000 -0.007
-0.007  0.039  0.000  0.321 -0.000
 0.000  0.000 -0.007 -0.000  0.204
atom    9   Tr[ns(na)]=   2.9851181
atom    9   spin  1
eigenvalues:  0.2174612 0.3144851 0.3201697 0.3795020 0.4245760
 eigenvectors
 1  -0.0060612 -0.0074050  0.0868265 -0.0087287  0.9961392
 2   0.0042381 -0.0065276  0.9954721  0.0387402 -0.0864517
 3   0.0009662 -0.9351783 -0.0200793  0.3536001 -0.0020974
 4  -0.1819030 -0.3482929  0.0329794 -0.9188590 -0.0146220
 5  -0.9832882  0.0635309 -0.0023654  0.1705522 -0.0038101
 occupations
 0.423 -0.003 -0.000 -0.008  0.001
-0.003  0.328 -0.001  0.020  0.001
-0.000 -0.001  0.314 -0.002 -0.008
-0.008  0.020 -0.002  0.373  0.002
 0.001  0.001 -0.008  0.002  0.218
atom    9   spin  2
eigenvalues:  0.1604092 0.2388003 0.2432869 0.3224644 0.3639632
 eigenvectors
 1  -0.0041759 -0.0066160  0.1478583 -0.0050013  0.9889650
 2   0.0033501  0.0106117  0.9887853  0.0194928 -0.1476477
 3  -0.0160699 -0.9565530  0.0037531  0.2910380 -0.0055563
 4  -0.1957521 -0.2822293  0.0206262 -0.9388776 -0.0105464
 5  -0.9805071  0.0720871 -0.0014308  0.1827589 -0.0025198
 occupations
 0.362 -0.004 -0.000 -0.007  0.001
-0.004  0.250 -0.000  0.023  0.001
-0.000 -0.000  0.237 -0.002 -0.011
-0.007  0.023 -0.002  0.317  0.001
 0.001  0.001 -0.011  0.001  0.162
atom   10   Tr[ns(na)]=   3.0177326
atom   10   spin  1
eigenvalues:  0.2161679 0.3216090 0.3298361 0.3763202 0.4335678
 eigenvectors
 1  -0.0161384 -0.0121360  0.0592710 -0.0312273  0.9975490
 2   0.0365893 -0.2180553  0.9411357  0.2507262 -0.0501313
 3  -0.0147602  0.8464558  0.3105387 -0.4317182 -0.0219066
 4  -0.1980997 -0.4795768  0.1195322 -0.8453753 -0.0426052
 5   0.9792545 -0.0763106 -0.0053266 -0.1874065  0.0093639
 occupations
 0.431 -0.003 -0.002 -0.011  0.003
-0.003  0.341 -0.001  0.021  0.002
-0.002 -0.001  0.323 -0.006 -0.007
-0.011  0.021 -0.006  0.366  0.005
 0.003  0.002 -0.007  0.005  0.217
atom   10   spin  2
eigenvalues:  0.1585781 0.2422514 0.2501672 0.3182701 0.3709648
 eigenvectors
 1  -0.0113592 -0.0120164  0.1201601 -0.0184276  0.9924457
 2   0.0195801 -0.1025606  0.9801841  0.1205889 -0.1174542
 3   0.0090856  0.9303790  0.1375466 -0.3394982 -0.0115883
 4  -0.2124493 -0.3422615  0.0766389 -0.9114683 -0.0327787
 5   0.9768676 -0.0811723 -0.0028611 -0.1977000  0.0068737
 occupations
 0.368 -0.005 -0.001 -0.010  0.002
-0.005  0.259 -0.001  0.023  0.002
-0.001 -0.001  0.242 -0.005 -0.010
-0.010  0.023 -0.005  0.311  0.004
 0.002  0.002 -0.010  0.004  0.160
atom   11   Tr[ns(na)]=   2.9851181
atom   11   spin  1
eigenvalues:  0.2174612 0.3144851 0.3201697 0.3795020 0.4245760
 eigenvectors
 1   0.0060612  0.0074050  0.0868265  0.0087287  0.9961392
 2   0.0042381 -0.0065276 -0.9954721  0.0387402  0.0864517
 3  -0.0009662  0.9351783 -0.0200793 -0.3536001 -0.0020974
 4  -0.1819030 -0.3482929 -0.0329794 -0.9188590  0.0146220
 5  -0.9832882  0.0635309  0.0023654  0.1705522  0.0038101
 occupations
 0.423 -0.003  0.000 -0.008 -0.001
-0.003  0.328  0.001  0.020 -0.001
 0.000  0.001  0.314  0.002 -0.008
-0.008  0.020  0.002  0.373 -0.002
-0.001 -0.001 -0.008 -0.002  0.218
atom   11   spin  2
eigenvalues:  0.1604092 0.2388003 0.2432869 0.3224644 0.3639632
 eigenvectors
 1   0.0041759  0.0066160  0.1478583  0.0050013  0.9889650
 2   0.0033501  0.0106117 -0.9887853  0.0194928  0.1476477
 3   0.0160699  0.9565530  0.0037531 -0.2910380 -0.0055563
 4  -0.1957521 -0.2822293 -0.0206262 -0.9388776  0.0105464
 5  -0.9805071  0.0720871  0.0014308  0.1827589  0.0025198
 occupations
 0.362 -0.004  0.000 -0.007 -0.001
-0.004  0.250  0.000  0.023 -0.001
 0.000  0.000  0.237  0.002 -0.011
-0.007  0.023  0.002  0.317 -0.001
-0.001 -0.001 -0.011 -0.001  0.162
atom   12   Tr[ns(na)]=   3.0177326
atom   12   spin  1
eigenvalues:  0.2161679 0.3216090 0.3298361 0.3763202 0.4335678
 eigenvectors
 1   0.0161384  0.0121360  0.0592710  0.0312273  0.9975490
 2   0.0365893 -0.2180553 -0.9411357  0.2507262  0.0501313
 3   0.0147602 -0.8464558  0.3105387  0.4317182 -0.0219066
 4  -0.1980997 -0.4795768 -0.1195322 -0.8453753  0.0426052
 5   0.9792545 -0.0763106  0.0053266 -0.1874065 -0.0093639
 occupations
 0.431 -0.003  0.002 -0.011 -0.003
-0.003  0.341  0.001  0.021 -0.002
 0.002  0.001  0.323  0.006 -0.007
-0.011  0.021  0.006  0.366 -0.005
-0.003 -0.002 -0.007 -0.005  0.217
atom   12   spin  2
eigenvalues:  0.1585781 0.2422514 0.2501672 0.3182701 0.3709648
 eigenvectors
 1   0.0113592  0.0120164  0.1201601  0.0184276  0.9924457
 2   0.0195801 -0.1025606 -0.9801841  0.1205889  0.1174542
 3  -0.0090856 -0.9303790  0.1375466  0.3394982 -0.0115883
 4  -0.2124493 -0.3422615 -0.0766389 -0.9114683  0.0327787
 5   0.9768676 -0.0811723  0.0028611 -0.1977000 -0.0068737
 occupations
 0.368 -0.005  0.001 -0.010 -0.002
-0.005  0.259  0.001  0.023 -0.002
 0.001  0.001  0.242  0.005 -0.010
-0.010  0.023  0.005  0.311 -0.004
-0.002 -0.002 -0.010 -0.004  0.160
atom   13   Tr[ns(na)]=   2.9739931
atom   13   spin  1
eigenvalues:  0.2105886 0.3177577 0.3196395 0.3772951 0.4241296
 eigenvectors
 1  -0.0000000 -0.0000000 -0.1088645  0.0000000  0.9940566
 2  -0.0254095  0.9462585  0.0000000  0.3224116  0.0000000
 3   0.0000000 -0.0000000  0.9940566 -0.0000000  0.1088645
 4  -0.0798808  0.3195625 -0.0000000 -0.9441922  0.0000000
 5   0.9964805  0.0497460 -0.0000000 -0.0674680  0.0000000
 occupations
 0.424  0.004 -0.000 -0.003  0.000
 0.004  0.324 -0.000 -0.018  0.000
-0.000 -0.000  0.318  0.000  0.012
-0.003 -0.018  0.000  0.371 -0.000
 0.000  0.000  0.012 -0.000  0.212
atom   13   spin  2
eigenvalues:  0.1564485 0.2411301 0.2422197 0.3211706 0.3636137
 eigenvectors
 1  -0.0000000 -0.0000000 -0.1635939  0.0000000  0.9865278
 2  -0.0305468  0.9622091  0.0000000  0.2705928  0.0000000
 3   0.0000000 -0.0000000  0.9865278 -0.0000000  0.1635939
 4   0.1056763 -0.2660929  0.0000000  0.9581373 -0.0000000
 5  -0.9939313 -0.0578633  0.0000000  0.0935544 -0.0000000
 occupations
 0.363  0.005 -0.000 -0.003  0.000
 0.005  0.247 -0.000 -0.021  0.000
-0.000 -0.000  0.240  0.000  0.014
-0.003 -0.021  0.000  0.316 -0.000
 0.000  0.000  0.014 -0.000  0.159
atom   14   Tr[ns(na)]=   2.9708345
atom   14   spin  1
eigenvalues:  0.2019415 0.3192887 0.3268441 0.3718235 0.4275001
 eigenvectors
 1  -0.0000000 -0.0000000 -0.1089699  0.0000000  0.9940450
 2  -0.0299739  0.9412885  0.0000000  0.3362701  0.0000000
 3   0.0000000 -0.0000000  0.9940450 -0.0000000  0.1089699
 4   0.0214017 -0.3357398  0.0000000  0.9417116 -0.0000000
 5  -0.9993215 -0.0354235  0.0000000  0.0100817 -0.0000000
 occupations
 0.427  0.003 -0.000 -0.000  0.000
 0.003  0.325 -0.000 -0.017  0.000
-0.000 -0.000  0.325  0.000  0.014
-0.000 -0.017  0.000  0.366 -0.000
 0.000  0.000  0.014 -0.000  0.203
atom   14   spin  2
eigenvalues:  0.1517961 0.2414381 0.2473607 0.3169102 0.3659315
 eigenvectors
 1  -0.0000000 -0.0000000 -0.1574407  0.0000000  0.9875284
 2  -0.0336657  0.9626081  0.0000000  0.2687977  0.0000000
 3   0.0000000 -0.0000000  0.9875284 -0.0000000  0.1574407
 4   0.0478269 -0.2670903  0.0000000  0.9624839 -0.0000000
 5  -0.9982881 -0.0452585  0.0000000  0.0370468 -0.0000000
 occupations
 0.366  0.005 -0.000 -0.001  0.000
 0.005  0.247 -0.000 -0.020  0.000
-0.000 -0.000  0.245  0.000  0.015
-0.001 -0.020  0.000  0.312 -0.000
 0.000  0.000  0.015 -0.000  0.154
atom   15   Tr[ns(na)]=   2.9769647
atom   15   spin  1
eigenvalues:  0.2106852 0.3186067 0.3188860 0.3775384 0.4257795
 eigenvectors
 1   0.0026753 -0.0032399 -0.1080554  0.0029242  0.9941317
 2  -0.0054072  0.3810235  0.9067374  0.1508141  0.0993689
 3   0.0176899 -0.8604834  0.4073707 -0.3025125  0.0423164
 4   0.1121204 -0.3336873 -0.0141483  0.9358683 -0.0056799
 5   0.9935188  0.0550608 -0.0004308 -0.0994152 -0.0022486
 occupations
 0.425  0.004 -0.000 -0.004 -0.001
 0.004  0.326  0.000 -0.019  0.000
-0.000  0.000  0.317 -0.001  0.012
-0.004 -0.019 -0.001  0.371 -0.001
-0.001  0.000  0.012 -0.001  0.212
atom   15   spin  2
eigenvalues:  0.1565010 0.2413357 0.2415791 0.3211750 0.3648782
 eigenvectors
 1   0.0019546 -0.0026761 -0.1649796  0.0019888  0.9862894
 2  -0.0015761  0.1207244  0.9780670  0.0443024  0.1638456
 3   0.0280153 -0.9525407  0.1268535 -0.2746333  0.0191329
 4   0.1322558 -0.2721360 -0.0086357  0.9530775 -0.0043668
 5   0.9908164  0.0634555 -0.0005528 -0.1193866 -0.0016432
 occupations
 0.364  0.005 -0.000 -0.005 -0.000
 0.005  0.248  0.000 -0.022  0.000
-0.000  0.000  0.239 -0.001  0.014
-0.005 -0.022 -0.001  0.316 -0.000
-0.000  0.000  0.014 -0.000  0.159
atom   16   Tr[ns(na)]=   2.9813586
atom   16   spin  1
eigenvalues:  0.2078187 0.3210676 0.3214444 0.3761640 0.4275791
 eigenvectors
 1   0.0040988 -0.0032271 -0.1075705  0.0027595  0.9941799
 2   0.0156197 -0.8791294 -0.3294896 -0.3419193 -0.0376199
 3   0.0093523 -0.3168513  0.9377884 -0.0996717  0.1006785
 4   0.0961244 -0.3523401 -0.0204084  0.9306772 -0.0063314
 5   0.9951944  0.0508209 -0.0012272 -0.0836010 -0.0038387
 occupations
 0.427  0.004 -0.000 -0.004 -0.001
 0.004  0.328  0.000 -0.019  0.000
-0.000  0.000  0.320 -0.001  0.012
-0.004 -0.019 -0.001  0.370 -0.001
-0.001  0.000  0.012 -0.001  0.209
atom   16   spin  2
eigenvalues:  0.1549087 0.2430162 0.2430824 0.3200277 0.3662499
 eigenvectors
 1   0.0028804 -0.0024974 -0.1617334  0.0020534  0.9868250
 2   0.0266547 -0.9403241 -0.1864553 -0.2815366 -0.0324304
 3   0.0080076 -0.1847097  0.9689871 -0.0423019  0.1584071
 4   0.1167659 -0.2794864 -0.0118274  0.9529368 -0.0049694
 5   0.9927653  0.0596161 -0.0009493 -0.1041872 -0.0026856
 occupations
 0.366  0.005 -0.000 -0.004 -0.001
 0.005  0.249  0.000 -0.021  0.000
-0.000  0.000  0.241 -0.001  0.014
-0.004 -0.021 -0.001  0.314 -0.001
-0.001  0.000  0.014 -0.001  0.157
atom   17   Tr[ns(na)]=   2.9769647
atom   17   spin  1
eigenvalues:  0.2106852 0.3186067 0.3188860 0.3775384 0.4257795
 eigenvectors
 1  -0.0026753  0.0032399 -0.1080554 -0.0029242  0.9941317
 2  -0.0054072  0.3810235 -0.9067374  0.1508141 -0.0993689
 3  -0.0176899  0.8604834  0.4073707  0.3025125  0.0423164
 4   0.1121204 -0.3336873  0.0141483  0.9358683  0.0056799
 5   0.9935188  0.0550608  0.0004308 -0.0994152  0.0022486
 occupations
 0.425  0.004  0.000 -0.004  0.001
 0.004  0.326 -0.000 -0.019 -0.000
 0.000 -0.000  0.317  0.001  0.012
-0.004 -0.019  0.001  0.371  0.001
 0.001 -0.000  0.012  0.001  0.212
atom   17   spin  2
eigenvalues:  0.1565010 0.2413357 0.2415791 0.3211750 0.3648782
 eigenvectors
 1  -0.0019546  0.0026761 -0.1649796 -0.0019888  0.9862894
 2  -0.0015761  0.1207244 -0.9780670  0.0443024 -0.1638456
 3  -0.0280153  0.9525407  0.1268535  0.2746333  0.0191329
 4   0.1322558 -0.2721360  0.0086357  0.9530775  0.0043668
 5   0.9908164  0.0634555  0.0005528 -0.1193866  0.0016432
 occupations
 0.364  0.005  0.000 -0.005  0.000
 0.005  0.248 -0.000 -0.022 -0.000
 0.000 -0.000  0.239  0.001  0.014
-0.005 -0.022  0.001  0.316  0.000
 0.000 -0.000  0.014  0.000  0.159
atom   18   Tr[ns(na)]=   2.9813586
atom   18   spin  1
eigenvalues:  0.2078187 0.3210676 0.3214444 0.3761640 0.4275791
 eigenvectors
 1  -0.0040988  0.0032271 -0.1075705 -0.0027595  0.9941799
 2  -0.0156197  0.8791294 -0.3294896  0.3419193 -0.0376199
 3   0.0093523 -0.3168513 -0.9377884 -0.0996717 -0.1006785
 4   0.0961244 -0.3523401  0.0204084  0.9306772  0.0063314
 5   0.9951944  0.0508209  0.0012272 -0.0836010  0.0038387
 occupations
 0.427  0.004  0.000 -0.004  0.001
 0.004  0.328 -0.000 -0.019 -0.000
 0.000 -0.000  0.320  0.001  0.012
-0.004 -0.019  0.001  0.370  0.001
 0.001 -0.000  0.012  0.001  0.209
atom   18   spin  2
eigenvalues:  0.1549087 0.2430162 0.2430824 0.3200277 0.3662499
 eigenvectors
 1  -0.0028804  0.0024974 -0.1617334 -0.0020534  0.9868250
 2  -0.0266547  0.9403241 -0.1864553  0.2815366 -0.0324304
 3   0.0080076 -0.1847097 -0.9689871 -0.0423019 -0.1584071
 4   0.1167659 -0.2794864  0.0118274  0.9529368  0.0049694
 5   0.9927653  0.0596161  0.0009493 -0.1041872  0.0026856
 occupations
 0.366  0.005  0.000 -0.004  0.001
 0.005  0.249 -0.000 -0.021 -0.000
 0.000 -0.000  0.241  0.001  0.014
-0.004 -0.021  0.001  0.314  0.001
 0.001 -0.000  0.014  0.001  0.157
atom   19   Tr[ns(na)]=   2.9880847
atom   19   spin  1
eigenvalues:  0.1988939 0.3257059 0.3311286 0.3731346 0.4296481
 eigenvectors
 1   0.0101187 -0.0035954 -0.1158582  0.0044884  0.9931976
 2   0.0252576 -0.9570444  0.1082524 -0.2675952  0.0101153
 3   0.0057568  0.0900929  0.9859022  0.0815076  0.1149063
 4   0.0055291  0.2746714  0.0528997 -0.9599977  0.0114472
 5  -0.9995979 -0.0221806  0.0075330 -0.0115567  0.0110346
 occupations
 0.430  0.002 -0.001  0.001 -0.002
 0.002  0.329  0.001 -0.012  0.001
-0.001  0.001  0.329 -0.002  0.015
 0.001 -0.012 -0.002  0.369 -0.001
-0.002  0.001  0.015 -0.001  0.201
atom   19   spin  2
eigenvalues:  0.1486488 0.2454429 0.2504722 0.3176647 0.3673450
 eigenvectors
 1   0.0077726 -0.0024363 -0.1626560  0.0024220  0.9866462
 2   0.0307505 -0.9643216  0.1310297 -0.2271295  0.0195353
 3   0.0024264  0.1227934  0.9775825  0.0568216  0.1613064
 4  -0.0196393  0.2320489  0.0261797 -0.9721250  0.0074300
 5  -0.9993010 -0.0339554  0.0046260  0.0122727  0.0085210
 occupations
 0.367  0.004 -0.000 -0.000 -0.002
 0.004  0.250  0.001 -0.016  0.000
-0.000  0.001  0.248 -0.002  0.016
-0.000 -0.016 -0.002  0.314 -0.001
-0.002  0.000  0.016 -0.001  0.151
atom   20   Tr[ns(na)]=   2.9711624
atom   20   spin  1
eigenvalues:  0.2100409 0.3179279 0.3186604 0.3782110 0.4227584
 eigenvectors
 1   0.0044515 -0.0046765 -0.1143689  0.0038445  0.9934099
 2   0.0257168 -0.9579025  0.0403635 -0.2830741  0.0011178
 3   0.0010769  0.0327145  0.9924138  0.0313536  0.1142820
 4   0.0790094 -0.2812845 -0.0201341  0.9561234 -0.0076964
 5   0.9965316  0.0470069 -0.0000069 -0.0685516 -0.0039797
 occupations
 0.422  0.004 -0.000 -0.003 -0.001
 0.004  0.323  0.000 -0.017  0.001
-0.000  0.000  0.317 -0.001  0.012
-0.003 -0.017 -0.001  0.374 -0.001
-0.001  0.001  0.012 -0.001  0.211
atom   20   spin  2
eigenvalues:  0.1559979 0.2412787 0.2419587 0.3219181 0.3624104
 eigenvectors
 1   0.0031990 -0.0042259 -0.1671812  0.0021115  0.9859097
 2   0.0300315 -0.9596630  0.1343430 -0.2444024  0.0190932
 3  -0.0023078  0.1283402  0.9766595  0.0456031  0.1660725
 4  -0.1061120  0.2439145  0.0117769 -0.9638867  0.0054512
 5  -0.9938927 -0.0553501 -0.0000039  0.0954245  0.0027826
 occupations
 0.362  0.005 -0.000 -0.003 -0.001
 0.005  0.246  0.000 -0.020  0.000
-0.000  0.000  0.240 -0.001  0.014
-0.003 -0.020 -0.001  0.317 -0.001
-0.001  0.000  0.014 -0.001  0.158
atom   21   Tr[ns(na)]=   2.9880847
atom   21   spin  1
eigenvalues:  0.1988939 0.3257059 0.3311286 0.3731346 0.4296481
 eigenvectors
 1  -0.0101187  0.0035954 -0.1158582 -0.0044884  0.9931976
 2  -0.0252576  0.9570444  0.1082524  0.2675952  0.0101153
 3   0.0057568  0.0900929 -0.9859022  0.0815076 -0.1149063
 4   0.0055291  0.2746714 -0.0528997 -0.9599977 -0.0114472
 5  -0.9995979 -0.0221806 -0.0075330 -0.0115567 -0.0110346
 occupations
 0.430  0.002  0.001  0.001  0.002
 0.002  0.329 -0.001 -0.012 -0.001
 0.001 -0.001  0.329  0.002  0.015
 0.001 -0.012  0.002  0.369  0.001
 0.002 -0.001  0.015  0.001  0.201
atom   21   spin  2
eigenvalues:  0.1486488 0.2454429 0.2504722 0.3176647 0.3673450
 eigenvectors
 1  -0.0077726  0.0024363 -0.1626560 -0.0024220  0.9866462
 2  -0.0307505  0.9643216  0.1310297  0.2271295  0.0195353
 3   0.0024264  0.1227934 -0.9775825  0.0568216 -0.1613064
 4  -0.0196393  0.2320489 -0.0261797 -0.9721250 -0.0074300
 5  -0.9993010 -0.0339554 -0.0046260  0.0122727 -0.0085210
 occupations
 0.367  0.004  0.000 -0.000  0.002
 0.004  0.250 -0.001 -0.016 -0.000
 0.000 -0.001  0.248  0.002  0.016
-0.000 -0.016  0.002  0.314  0.001
 0.002 -0.000  0.016  0.001  0.151
atom   22   Tr[ns(na)]=   2.9711624
atom   22   spin  1
eigenvalues:  0.2100409 0.3179279 0.3186604 0.3782110 0.4227584
 eigenvectors
 1  -0.0044515  0.0046765 -0.1143689 -0.0038445  0.9934099
 2  -0.0257168  0.9579025  0.0403635  0.2830741  0.0011178
 3   0.0010769  0.0327145 -0.9924138  0.0313536 -0.1142820
 4   0.0790094 -0.2812845  0.0201341  0.9561234  0.0076964
 5   0.9965316  0.0470069  0.0000069 -0.0685516  0.0039797
 occupations
 0.422  0.004  0.000 -0.003  0.001
 0.004  0.323 -0.000 -0.017 -0.001
 0.000 -0.000  0.317  0.001  0.012
-0.003 -0.017  0.001  0.374  0.001
 0.001 -0.001  0.012  0.001  0.211
atom   22   spin  2
eigenvalues:  0.1559979 0.2412787 0.2419587 0.3219181 0.3624104
 eigenvectors
 1  -0.0031990  0.0042259 -0.1671812 -0.0021115  0.9859097
 2  -0.0300315  0.9596630  0.1343430  0.2444024  0.0190932
 3  -0.0023078  0.1283402 -0.9766595  0.0456031 -0.1660725
 4  -0.1061120  0.2439145 -0.0117769 -0.9638867 -0.0054512
 5  -0.9938927 -0.0553501  0.0000039  0.0954245 -0.0027826
 occupations
 0.362  0.005  0.000 -0.003  0.001
 0.005  0.246 -0.000 -0.020 -0.000
 0.000 -0.000  0.240  0.001  0.014
-0.003 -0.020  0.001  0.317  0.001
 0.001 -0.000  0.014  0.001  0.158
atom   23   Tr[ns(na)]=   2.9849861
atom   23   spin  1
eigenvalues:  0.2068049 0.3214666 0.3233334 0.3764910 0.4279229
 eigenvectors
 1  -0.0000000 -0.0000000 -0.1072854  0.0000000  0.9942283
 2  -0.0000000  0.0000000  0.9942283  0.0000000  0.1072854
 3  -0.0126026  0.9405855 -0.0000000  0.3393231 -0.0000000
 4  -0.1074874  0.3361094 -0.0000000 -0.9356693  0.0000000
 5   0.9941266  0.0482648 -0.0000000 -0.0968652  0.0000000
 occupations
 0.427  0.003 -0.000 -0.005  0.000
 0.003  0.330 -0.000 -0.017  0.000
-0.000 -0.000  0.320  0.000  0.012
-0.005 -0.017  0.000  0.371 -0.000
 0.000  0.000  0.012 -0.000  0.208
atom   23   spin  2
eigenvalues:  0.1543801 0.2430448 0.2447159 0.3203520 0.3664745
 eigenvectors
 1  -0.0000000 -0.0000000 -0.1609868  0.0000000  0.9869566
 2  -0.0000000  0.0000000  0.9869566  0.0000000  0.1609868
 3  -0.0238730  0.9613572 -0.0000000  0.2742670 -0.0000000
 4   0.1274281 -0.2691812  0.0000000  0.9546222 -0.0000000
 5  -0.9915605 -0.0577390  0.0000000  0.1160777 -0.0000000
 occupations
 0.366  0.004 -0.000 -0.005  0.000
 0.004  0.251 -0.000 -0.020  0.000
-0.000 -0.000  0.241  0.000  0.014
-0.005 -0.020  0.000  0.315 -0.000
 0.000  0.000  0.014 -0.000  0.157
atom   24   Tr[ns(na)]=   2.9779256
atom   24   spin  1
eigenvalues:  0.2099282 0.3183633 0.3202434 0.3776463 0.4257939
 eigenvectors
 1  -0.0000000 -0.0000000 -0.1092357  0.0000000  0.9940159
 2  -0.0000000  0.0000000  0.9940159  0.0000000  0.1092357
 3  -0.0151571  0.9457429 -0.0000000  0.3245623 -0.0000000
 4  -0.1173643  0.3206730 -0.0000000 -0.9398907  0.0000000
 5   0.9929733  0.0523381 -0.0000000 -0.1061360  0.0000000
 occupations
 0.425  0.003 -0.000 -0.005  0.000
 0.003  0.326 -0.000 -0.018  0.000
-0.000 -0.000  0.317  0.000  0.012
-0.005 -0.018  0.000  0.372 -0.000
 0.000  0.000  0.012 -0.000  0.211
atom   24   spin  2
eigenvalues:  0.1561185 0.2412529 0.2424090 0.3213215 0.3648487
 eigenvectors
 1  -0.0000000 -0.0000000 -0.1661310  0.0000000  0.9861037
 2  -0.0000000  0.0000000  0.9861037  0.0000000  0.1661310
 3  -0.0260512  0.9627145 -0.0000000  0.2692622 -0.0000000
 4   0.1374754 -0.2633442  0.0000000  0.9548562 -0.0000000
 5  -0.9901625 -0.0618921  0.0000000  0.1254892 -0.0000000
 occupations
 0.364  0.005 -0.000 -0.005  0.000
 0.005  0.248 -0.000 -0.021  0.000
-0.000 -0.000  0.239  0.000  0.014
-0.005 -0.021  0.000  0.316 -0.000
 0.000  0.000  0.014 -0.000  0.158
nsum =  73.0471921
 exit write_ns

     negative rho (up, down):  0.905E-02 0.997E-02

     total cpu time spent up to now is     87.95 secs

     total energy              =   -5389.42936092 Ry
     Harris-Foulkes estimate   =   -5397.43583300 Ry
     estimated scf accuracy    <      51.14056820 Ry

     total magnetization       =     0.00 Bohr mag/cell
     absolute magnetization    =    11.88 Bohr mag/cell

     iteration #  2     ecut=    30.00 Ry     beta=0.30
     Davidson diagonalization with overlap
     ethr =  7.61E-03,  avg # of iterations =  1.0

     negative rho (up, down):  0.122E-01 0.134E-01

     total cpu time spent up to now is    139.74 secs

     total energy              =   -5386.97295578 Ry
     Harris-Foulkes estimate   =   -5391.59853253 Ry
     estimated scf accuracy    <      15.62689025 Ry

     total magnetization       =     0.01 Bohr mag/cell
     absolute magnetization    =     5.50 Bohr mag/cell

     iteration #  3     ecut=    30.00 Ry     beta=0.30
     Davidson diagonalization with overlap
     ethr =  2.33E-03,  avg # of iterations =  3.0

     negative rho (up, down):  0.117E-01 0.130E-01

     total cpu time spent up to now is    219.16 secs

     total energy              =   -5390.57174506 Ry
     Harris-Foulkes estimate   =   -5391.00142357 Ry
     estimated scf accuracy    <      20.72671871 Ry

     total magnetization       =    -0.05 Bohr mag/cell
     absolute magnetization    =     5.72 Bohr mag/cell

     iteration #  4     ecut=    30.00 Ry     beta=0.30
     Davidson diagonalization with overlap
     ethr =  2.33E-03,  avg # of iterations =  1.0

     negative rho (up, down):  0.109E-01 0.128E-01

     total cpu time spent up to now is    271.72 secs

     total energy              =   -5390.30407518 Ry
     Harris-Foulkes estimate   =   -5390.64750295 Ry
     estimated scf accuracy    <      11.29411535 Ry

     total magnetization       =     1.26 Bohr mag/cell
     absolute magnetization    =     6.43 Bohr mag/cell

     iteration #  5     ecut=    30.00 Ry     beta=0.30
     Davidson diagonalization with overlap
     ethr =  1.68E-03,  avg # of iterations =  1.0

     negative rho (up, down):  0.104E-01 0.151E-01

     total cpu time spent up to now is    324.06 secs

     total energy              =   -5390.24566535 Ry
     Harris-Foulkes estimate   =   -5390.48624014 Ry
     estimated scf accuracy    <       5.96464905 Ry

     total magnetization       =     1.38 Bohr mag/cell
     absolute magnetization    =     6.67 Bohr mag/cell

     iteration #  6     ecut=    30.00 Ry     beta=0.30
     Davidson diagonalization with overlap
     ethr =  8.88E-04,  avg # of iterations =  2.0

     negative rho (up, down):  0.104E-01 0.164E-01

     total cpu time spent up to now is    381.84 secs

     total energy              =   -5390.20881633 Ry
     Harris-Foulkes estimate   =   -5390.38933260 Ry
     estimated scf accuracy    <       3.45761981 Ry

     total magnetization       =     0.75 Bohr mag/cell
     absolute magnetization    =     7.08 Bohr mag/cell

     iteration #  7     ecut=    30.00 Ry     beta=0.30
     Davidson diagonalization with overlap
     ethr =  5.15E-04,  avg # of iterations =  5.3

     negative rho (up, down):  0.107E-01 0.167E-01

     total cpu time spent up to now is    457.60 secs

     total energy              =   -5390.16263293 Ry
     Harris-Foulkes estimate   =   -5390.24138718 Ry
     estimated scf accuracy    <       2.81562536 Ry

     total magnetization       =     0.35 Bohr mag/cell
     absolute magnetization    =     7.32 Bohr mag/cell

     iteration #  8     ecut=    30.00 Ry     beta=0.30
     Davidson diagonalization with overlap
     ethr =  4.19E-04,  avg # of iterations =  1.9

     negative rho (up, down):  0.108E-01 0.165E-01

     total cpu time spent up to now is    514.87 secs

     total energy              =   -5390.04132701 Ry
     Harris-Foulkes estimate   =   -5390.17888324 Ry
     estimated scf accuracy    <       2.46419008 Ry

     total magnetization       =     0.14 Bohr mag/cell
     absolute magnetization    =     7.38 Bohr mag/cell

     iteration #  9     ecut=    30.00 Ry     beta=0.30
     Davidson diagonalization with overlap
     ethr =  3.67E-04,  avg # of iterations =  5.1

     negative rho (up, down):  0.108E-01 0.166E-01

     total cpu time spent up to now is    590.47 secs

     total energy              =   -5390.03799568 Ry
     Harris-Foulkes estimate   =   -5390.06582207 Ry
     estimated scf accuracy    <       1.68225432 Ry

     total magnetization       =     0.03 Bohr mag/cell
     absolute magnetization    =     7.48 Bohr mag/cell

     iteration # 10     ecut=    30.00 Ry     beta=0.30
     Davidson diagonalization with overlap
     ethr =  2.50E-04,  avg # of iterations =  1.9

     negative rho (up, down):  0.108E-01 0.158E-01

     total cpu time spent up to now is    647.01 secs

     total energy              =   -5389.95655018 Ry
     Harris-Foulkes estimate   =   -5390.04088711 Ry
     estimated scf accuracy    <       1.52507575 Ry

     total magnetization       =     0.03 Bohr mag/cell
     absolute magnetization    =     7.48 Bohr mag/cell

     iteration # 11     ecut=    30.00 Ry     beta=0.30
     Davidson diagonalization with overlap
     ethr =  2.27E-04,  avg # of iterations =  5.1

     negative rho (up, down):  0.108E-01 0.156E-01

     total cpu time spent up to now is    722.70 secs

     total energy              =   -5390.02411739 Ry
     Harris-Foulkes estimate   =   -5390.00999481 Ry
     estimated scf accuracy    <       0.23655649 Ry

     total magnetization       =     0.00 Bohr mag/cell
     absolute magnetization    =     5.62 Bohr mag/cell

     iteration # 12     ecut=    30.00 Ry     beta=0.30
     Davidson diagonalization with overlap
     ethr =  3.52E-05,  avg # of iterations =  8.6

     negative rho (up, down):  0.108E-01 0.140E-01

     total cpu time spent up to now is    823.45 secs

     total energy              =   -5390.11223691 Ry
     Harris-Foulkes estimate   =   -5390.02640222 Ry
     estimated scf accuracy    <       0.21653819 Ry

     total magnetization       =     0.00 Bohr mag/cell
     absolute magnetization    =     5.56 Bohr mag/cell

     iteration # 13     ecut=    30.00 Ry     beta=0.30
     Davidson diagonalization with overlap
     ethr =  3.22E-05,  avg # of iterations =  4.1

     negative rho (up, down):  0.109E-01 0.132E-01

     total cpu time spent up to now is    894.58 secs

     total energy              =   -5390.15985193 Ry
     Harris-Foulkes estimate   =   -5390.13270253 Ry
     estimated scf accuracy    <       0.15053406 Ry

     total magnetization       =     0.00 Bohr mag/cell
     absolute magnetization    =     4.67 Bohr mag/cell

     iteration # 14     ecut=    30.00 Ry     beta=0.30
     Davidson diagonalization with overlap
     ethr =  2.24E-05,  avg # of iterations =  7.0

     negative rho (up, down):  0.112E-01 0.127E-01

     total cpu time spent up to now is    988.16 secs

     total energy              =   -5390.19111027 Ry
     Harris-Foulkes estimate   =   -5390.17765356 Ry
     estimated scf accuracy    <       0.06739621 Ry

     total magnetization       =    -0.00 Bohr mag/cell
     absolute magnetization    =     3.88 Bohr mag/cell

     iteration # 15     ecut=    30.00 Ry     beta=0.30
     Davidson diagonalization with overlap
     ethr =  1.00E-05,  avg # of iterations =  5.9

     negative rho (up, down):  0.113E-01 0.123E-01

     total cpu time spent up to now is   1072.03 secs

     total energy              =   -5390.20527926 Ry
     Harris-Foulkes estimate   =   -5390.19790823 Ry
     estimated scf accuracy    <       0.04155950 Ry

     total magnetization       =    -0.00 Bohr mag/cell
[...]
     0.6608   0.6895   0.6970   0.7239   0.7430   0.7484   0.7660   0.8007
     0.8518   1.0432   1.0475   1.1203   1.1380   1.1752   1.1866   1.2309
     1.2474   1.2653   1.3100   1.3122   1.3468   1.3739   1.4072   1.4116
     1.4361   1.4444   1.5017   1.5035   1.5130   1.5280   1.5284   1.5777
     1.5934   1.5936   1.6252   1.6372   1.6518   1.6533   1.6700   1.6927
     1.7344   1.8644   1.8826   1.9499   1.9745   2.0265   2.0695   2.0733
     2.1131   2.1405   2.2002   2.2133   2.2351   2.2375   2.2410   2.3003
     2.3026   2.3430   2.3729   2.3893   2.3910   2.4034   2.4183   2.4367
     2.4375   2.4511   2.4859   2.4960   2.5019   2.5045   2.5107   2.5348
     2.5603   2.5604   2.5727   2.6246   2.6735   2.6915   2.7127   2.7129
     2.7215   2.7515   2.7827   2.8181   2.8292   2.8565   2.8864   2.9062
     2.9180   2.9445   2.9728   2.9996   3.0068   3.0358   3.0494   3.0809
     3.1010   3.1433   3.1452   3.2275   3.2306   3.2604   3.3036   3.3103
     3.3657   3.4326   3.5231   3.5389   3.5549   3.5890   3.6014   3.6210
     3.6917   3.7388   3.7696   3.7725   3.8068   3.8265   3.8527   3.8707
     3.8801   3.8977   3.9374   3.9533   3.9972   4.0346   4.0501   4.0964
     4.1070   4.1443   4.1795   4.2553   4.2699   4.3074   4.3921   4.3956
     6.2056   6.2772   6.4010   6.6223   6.7053   6.7766   6.7990   6.8221
     6.8277   6.8520   7.0755   7.0999   7.1060   7.2287   7.2891   7.3189
     7.3406   7.3862   7.4361   7.4676   7.5046   7.5841   7.5983   7.6087
     7.6122   7.6574   7.6797   7.6995   7.7615   7.7813   7.7944   7.8144
     7.8614   7.8638   7.8765   7.8786   7.9099   7.9219   7.9268   7.9289
     7.9347   7.9721   7.9822   7.9918   8.0296   8.0659   8.0921   8.0981
     8.1119   8.1209   8.1328   8.1370   8.1486   8.1665   8.1929   8.2006
     8.2517   8.2541   8.2968   8.3211   8.3433   8.3622   8.3733   8.4231
     8.4379   8.4666   8.4874

          k =-0.5000-0.5390-0.6582 ( 20080 PWs)   bands (ev):

   -60.5719 -60.5700 -60.3496 -59.9633 -59.9612 -59.9610 -59.9471 -59.9470
   -59.9198 -59.8256 -59.8222 -59.8123 -59.8019 -59.7892 -59.7890 -59.7165
   -59.7117 -59.7069 -59.7064 -59.7027 -59.6946 -59.6519 -59.6459 -59.6430
   -34.6036 -34.5559 -34.4791 -34.4707 -34.4138 -34.4051 -34.3356 -34.2664
   -34.1641 -33.9206 -33.9104 -33.9083 -33.9049 -33.9022 -33.9017 -33.8882
   -33.8737 -33.8714 -33.8701 -33.8548 -33.8395 -33.8203 -33.8141 -33.8106
   -33.8083 -33.8005 -33.7932 -33.7928 -33.7883 -33.7567 -33.7530 -33.7442
   -33.7412 -33.7387 -33.7320 -33.7181 -33.7170 -33.6997 -33.6938 -33.6790
   -33.6778 -33.6758 -33.6706 -33.6662 -33.6648 -33.6644 -33.6620 -33.6459
   -33.6429 -33.6356 -33.6309 -33.6244 -33.6238 -33.6220 -33.6172 -33.6154
   -33.6124 -33.6055 -33.5920 -33.5908 -33.5666 -33.5577 -33.5543 -33.5478
   -33.5347 -33.5340 -33.5224 -33.5207 -33.4954 -33.4875 -33.4770 -33.4682
   -17.7065 -13.4159 -13.2318 -13.2005 -13.1230 -13.1058 -13.0393 -12.9822
   -12.9535 -12.6863 -12.5734 -12.4815 -12.4661 -12.3737 -12.3244 -12.2903
   -12.2713 -12.2667 -12.2488 -12.2187 -12.1710 -12.1359 -12.1051 -12.0913
   -12.0844 -12.0806 -12.0527 -12.0311 -12.0139 -12.0054 -11.9993 -11.9796
   -11.9476 -11.9438 -11.9159 -11.9061 -11.8803 -11.8034 -11.7939 -11.7142
   -11.7072 -11.6972 -11.6842 -11.6795 -11.6689 -11.6125 -11.5928 -11.5905
   -11.5719 -11.5518 -11.5303 -11.4732 -11.4702 -11.4519 -11.4449 -11.4437
   -11.4297 -11.3908 -11.3819 -11.3692  -3.9757  -3.3696  -2.5374  -0.6488
    -0.6379  -0.4466  -0.4195  -0.3887  -0.3421  -0.3112  -0.3109  -0.2838
    -0.2307  -0.2227  -0.2185  -0.1923  -0.1791  -0.1629  -0.1184  -0.0176
    -0.0142  -0.0024   0.0136   0.0518   0.0678   0.0931   0.0936   0.1330
     0.2620   0.2713   0.2827   0.2987   0.2999   0.4008   0.4101   0.4640
     0.5106   0.5237   0.5593   0.6234   0.6449   0.6555   0.7096   0.7465
     0.7704   0.8035   0.8366   0.8375   0.8544   0.8647   0.8915   0.9257
     0.9350   0.9648   0.9714   1.0149   1.0382   1.0495   1.0634   1.0778
     1.1035   1.1150   1.1214   1.1530   1.1560   1.2020   1.2760   1.2788
     1.3002   1.3429   1.3495   1.3502   1.4130   1.4286   1.4678   1.4724
     1.4771   1.5264   1.5904   1.6174   1.6453   1.6641   1.6901   1.7517
     1.7519   1.7837   1.7867   1.8149   1.8379   1.8917   1.9020   1.9175
     1.9423   1.9902   1.9906   2.0147   2.1198   2.1534   2.1679   2.2225
     2.2757   2.2873   2.3181   2.3443   2.3605   2.3773   2.4184   2.4330
     2.4482   2.4512   2.4775   2.5189   2.5207   2.5456   2.5709   2.5914
     2.6361   2.6526   2.6805   2.7237   2.7405   2.7424   2.7567   2.7771
     2.7809   2.8139   2.8162   2.8639   2.8851   2.8916   2.9050   2.9327
     2.9433   2.9960   3.0504   3.0668   3.0832   3.1525   3.1877   3.2171
     3.2241   3.2285   3.2539   3.3413   3.3487   3.4437   3.4500   3.4548
     3.4841   3.5017   3.5282   3.5579   3.6096   3.6324   3.6475   3.6678
     3.6924   3.7345   3.7435   3.7716   3.7730   3.8137   3.8343   3.8470
     3.8622   3.9060   3.9126   3.9397   3.9705   3.9748   3.9906   3.9966
     4.0378   4.0458   4.0639   4.0988   4.1076   4.1144   4.1676   4.1758
     6.2105   6.2798   6.4063   6.6318   6.7086   6.7836   6.8101   6.8218
     6.8256   6.8538   7.0786   7.0999   7.1197   7.2443   7.3183   7.3395
     7.3572   7.4003   7.4538   7.4762   7.5178   7.5796   7.6074   7.6480
     7.6577   7.6636   7.7348   7.7394   7.7948   7.8268   7.8392   7.8524
     7.8657   7.8727   7.8810   7.8966   7.9137   7.9152   7.9230   7.9246
     7.9333   7.9496   7.9641   7.9997   8.0421   8.0874   8.0980   8.1030
     8.1074   8.1126   8.1158   8.1249   8.1719   8.1946   8.2267   8.2480
     8.2639   8.2808   8.2867   8.3191   8.3417   8.3436   8.4496   8.4540
     8.4626   8.5198   8.5237

     the Fermi energy is     5.5008 ev

!    total energy              =   -5390.21710152 Ry
     Harris-Foulkes estimate   =   -5390.21710152 Ry
     estimated scf accuracy    <          9.2E-09 Ry

     The total energy is the sum of the following terms:

     one-electron contribution =   -3532.98774111 Ry
     hartree contribution      =    1995.34253165 Ry
     xc contribution           =    -854.71340063 Ry
     ewald contribution        =   -3004.48624289 Ry
     Hubbard energy            =       6.62775145 Ry
     smearing contrib. (-TS)   =      -0.00000000 Ry

     total magnetization       =     0.00 Bohr mag/cell
     absolute magnetization    =     0.00 Bohr mag/cell

     convergence has been achieved in  33 iterations
 forces --- starting time for forces:
     forces       :      0.00s CPU      0.00s WALL (       1 calls)

     Forces acting on atoms (Ry/au):

 forces --- nonlocal contribution:
     forces       :      4.99s CPU      5.00s WALL (       2 calls)
 forces --- local contribution:
     forces       :      5.00s CPU      5.02s WALL (       3 calls)

     negative rho (up, down):  0.118E-01 0.118E-01
 forces --- NLCC contribution:
     forces       :      5.15s CPU      5.16s WALL (       4 calls)
 forces --- entering force_hub:
     forces       :      5.15s CPU      5.16s WALL (       5 calls)
           1  forces --- i/o, init_us_2, calbec, s_psi:
     forces       :      5.28s CPU      5.30s WALL (       6 calls)
           1  forces --- dn/dtau:
     forces       :     63.62s CPU     63.66s WALL (       7 calls)
           2  forces --- i/o, init_us_2, calbec, s_psi:
     forces       :     63.76s CPU     63.80s WALL (       8 calls)
           2  forces --- dn/dtau:
     forces       :    122.05s CPU    122.10s WALL (       9 calls)
           3  forces --- i/o, init_us_2, calbec, s_psi:
     forces       :    122.19s CPU    122.24s WALL (      10 calls)
           3  forces --- dn/dtau:
     forces       :    180.31s CPU    180.40s WALL (      11 calls)
           4  forces --- i/o, init_us_2, calbec, s_psi:
     forces       :    180.43s CPU    180.52s WALL (      12 calls)
           4  forces --- dn/dtau:
     forces       :    237.98s CPU    238.10s WALL (      13 calls)
           5  forces --- i/o, init_us_2, calbec, s_psi:
     forces       :    238.11s CPU    238.23s WALL (      14 calls)
           5  forces --- dn/dtau:
     forces       :    295.67s CPU    295.80s WALL (      15 calls)
           6  forces --- i/o, init_us_2, calbec, s_psi:
     forces       :    295.79s CPU    295.93s WALL (      16 calls)
           6  forces --- dn/dtau:
     forces       :    351.15s CPU    351.31s WALL (      17 calls)
           7  forces --- i/o, init_us_2, calbec, s_psi:
     forces       :    351.27s CPU    351.44s WALL (      18 calls)
           7  forces --- dn/dtau:
     forces       :    406.92s CPU    407.10s WALL (      19 calls)
           8  forces --- i/o, init_us_2, calbec, s_psi:
     forces       :    407.03s CPU    407.22s WALL (      20 calls)
           8  forces --- dn/dtau:
     forces       :    461.88s CPU    462.12s WALL (      21 calls)
           9  forces --- i/o, init_us_2, calbec, s_psi:
     forces       :    462.00s CPU    462.24s WALL (      22 calls)
           9  forces --- dn/dtau:
     forces       :    516.89s CPU    517.14s WALL (      23 calls)
          10  forces --- i/o, init_us_2, calbec, s_psi:
     forces       :    517.00s CPU    517.26s WALL (      24 calls)
          10  forces --- dn/dtau:
     forces       :    572.35s CPU    572.64s WALL (      25 calls)
          11  forces --- i/o, init_us_2, calbec, s_psi:
     forces       :    572.47s CPU    572.76s WALL (      26 calls)
          11  forces --- dn/dtau:
     forces       :    627.43s CPU    627.73s WALL (      27 calls)
          12  forces --- i/o, init_us_2, calbec, s_psi:
     forces       :    627.54s CPU    627.85s WALL (      28 calls)
          12  forces --- dn/dtau:
     forces       :    682.35s CPU    682.68s WALL (      29 calls)
          13  forces --- i/o, init_us_2, calbec, s_psi:
     forces       :    682.47s CPU    682.80s WALL (      30 calls)
          13  forces --- dn/dtau:
     forces       :    737.43s CPU    737.78s WALL (      31 calls)
          14  forces --- i/o, init_us_2, calbec, s_psi:
     forces       :    737.55s CPU    737.90s WALL (      32 calls)
          14  forces --- dn/dtau:
     forces       :    792.33s CPU    792.69s WALL (      33 calls)
          15  forces --- i/o, init_us_2, calbec, s_psi:
     forces       :    792.45s CPU    792.81s WALL (      34 calls)
          15  forces --- dn/dtau:
     forces       :    847.11s CPU    847.48s WALL (      35 calls)
          16  forces --- i/o, init_us_2, calbec, s_psi:
     forces       :    847.23s CPU    847.60s WALL (      36 calls)
          16  forces --- dn/dtau:
     forces       :    901.33s CPU    901.76s WALL (      37 calls)
 forces --- Hubbard contribution:
     forces       :    901.33s CPU    901.76s WALL (      38 calls)
 forces --- ionic contribution:
     forces       :    901.35s CPU    901.78s WALL (      39 calls)
 forces --- SCF contribution:
     forces       :    901.49s CPU    901.92s WALL (      40 calls)
     atom   1 type  2   force =    -0.02957073   -0.14712972   -0.02228835
     atom   2 type  2   force =    -0.00033220   -0.00692012   -0.00558963
     atom   3 type  2   force =    -0.02957073    0.14712972   -0.02228835
     atom   4 type  2   force =    -0.00033220    0.00692012   -0.00558963
     atom   5 type  2   force =    -0.00883943    0.00000000   -0.01914201
     atom   6 type  2   force =    -0.00036580    0.00000000   -0.01152821
     atom   7 type  2   force =     0.00532672    0.00000000    0.00269631
     atom   8 type  2   force =     0.12349838    0.00000000    0.02128328
     atom   9 type  2   force =     0.00304556    0.00523285    0.00975511
     atom  10 type  2   force =     0.01577830    0.02118933    0.01719218
     atom  11 type  2   force =     0.00304556   -0.00523285    0.00975511
     atom  12 type  2   force =     0.01577830   -0.02118933    0.01719218
     atom  13 type  2   force =     0.00992160    0.00000000    0.01245743
     atom  14 type  2   force =     0.02693240    0.00000000    0.02063326
     atom  15 type  2   force =     0.00625106    0.00247916    0.01295520
     atom  16 type  2   force =     0.00956756    0.00564588    0.01759453
     atom  17 type  2   force =     0.00625106   -0.00247916    0.01295520
     atom  18 type  2   force =     0.00956756   -0.00564588    0.01759453
     atom  19 type  2   force =    -0.04168203   -0.00735564   -0.02047324
     atom  20 type  2   force =    -0.01242832   -0.00277886   -0.01263622
     atom  21 type  2   force =    -0.04168203    0.00735564   -0.02047324
     atom  22 type  2   force =    -0.01242832    0.00277886   -0.01263622
     atom  23 type  2   force =    -0.01242602    0.00000000   -0.01732440
     atom  24 type  2   force =    -0.00746526    0.00000000   -0.01334747
     atom  25 type  3   force =    -0.02975014    0.00000000    0.02065741
     atom  26 type  1   force =    -0.00391680    0.00000000    0.00380089
     atom  27 type  1   force =    -0.01404845   -0.03526131   -0.00755371
     atom  28 type  1   force =    -0.00502942   -0.00595890    0.00249931
     atom  29 type  1   force =    -0.01404845    0.03526131   -0.00755371
     atom  30 type  1   force =    -0.00502942    0.00595890    0.00249931
     atom  31 type  1   force =     0.00146547    0.00532099   -0.00259153
     atom  32 type  1   force =    -0.02027477    0.04352760   -0.00515865
     atom  33 type  1   force =     0.00146547   -0.00532099   -0.00259153
     atom  34 type  1   force =    -0.02027477   -0.04352760   -0.00515865
     atom  35 type  1   force =     0.00330516    0.00000000   -0.00194856
     atom  36 type  1   force =     0.00099369    0.00000000    0.00039600
     atom  37 type  1   force =    -0.00315696    0.00255017   -0.00271489
     atom  38 type  1   force =    -0.00227673    0.00656783   -0.00316316
     atom  39 type  1   force =    -0.00315696   -0.00255017   -0.00271489
     atom  40 type  1   force =    -0.00227673   -0.00656783   -0.00316316
     atom  41 type  1   force =    -0.00393606    0.00000000   -0.00213488
     atom  42 type  1   force =    -0.00404753    0.00000000   -0.00156366
     atom  43 type  1   force =     0.01017957    0.00000000    0.00151455
     atom  44 type  1   force =     0.00472436    0.00000000    0.00276123
     atom  45 type  1   force =     0.00853056   -0.00837020    0.00059416
     atom  46 type  1   force =     0.00503752   -0.00282378    0.00221907
     atom  47 type  1   force =     0.00853056    0.00837020    0.00059416
     atom  48 type  1   force =     0.00503752    0.00282378    0.00221907
     atom  49 type  1   force =     0.00242202    0.00056084    0.00715934
     atom  50 type  1   force =     0.00104853    0.00049977   -0.00245956
     atom  51 type  1   force =     0.00242202   -0.00056084    0.00715934
     atom  52 type  1   force =     0.00104853   -0.00049977   -0.00245956
     atom  53 type  1   force =     0.00073800    0.00000000    0.00480902
     atom  54 type  1   force =     0.00032114    0.00000000   -0.00087036
     atom  55 type  1   force =    -0.00054432    0.00000000    0.00243873
     atom  56 type  1   force =    -0.00196727    0.00000000   -0.00757747
     atom  57 type  1   force =     0.00000309   -0.00039856    0.00093380
     atom  58 type  1   force =    -0.00059026   -0.00040340   -0.00511624
     atom  59 type  1   force =     0.00000309    0.00039856    0.00093380
     atom  60 type  1   force =    -0.00059026    0.00040340   -0.00511624
     atom  61 type  1   force =    -0.00480402    0.00000000    0.01455892
     atom  62 type  1   force =    -0.00473782    0.00000000   -0.01477476
     atom  63 type  1   force =    -0.00137535   -0.00107647    0.00398743
     atom  64 type  1   force =    -0.00100940   -0.00125542   -0.00734616
     atom  65 type  1   force =    -0.00137535    0.00107647    0.00398743
     atom  66 type  1   force =    -0.00100940    0.00125542   -0.00734616
     atom  67 type  1   force =    -0.04998734    0.00000000    0.00121916
     atom  68 type  1   force =    -0.01050851    0.00000000   -0.00894476
     atom  69 type  1   force =    -0.01545856   -0.00213827   -0.00664674
     atom  70 type  1   force =    -0.00605318   -0.00057812   -0.00843105
     atom  71 type  1   force =    -0.01545856    0.00213827   -0.00664674
     atom  72 type  1   force =    -0.00605318    0.00057812   -0.00843105
     atom  73 type  1   force =     0.01060002    0.00079632    0.00983746
     atom  74 type  1   force =     0.05438464    0.01187894    0.00796675
     atom  75 type  1   force =     0.01060002   -0.00079632    0.00983746
     atom  76 type  1   force =     0.05438464   -0.01187894    0.00796675
     atom  77 type  1   force =     0.00569937    0.00000000    0.00882403
     atom  78 type  1   force =     0.01484177    0.00000000    0.00741269
     atom  79 type  1   force =     0.00185803    0.00882601    0.01933716
     atom  80 type  1   force =     0.00128663    0.00453755   -0.01473234
     atom  81 type  1   force =     0.00185803   -0.00882601    0.01933716
     atom  82 type  1   force =     0.00128663   -0.00453755   -0.01473234
     atom  83 type  1   force =     0.00016364    0.00000000    0.00683099
     atom  84 type  1   force =     0.00066530    0.00000000   -0.00339742

     Total force =     0.310010     Total SCF correction =     0.000438


     entering subroutine stress ...


     negative rho (up, down):  0.118E-01 0.118E-01
          total   stress  (Ry/bohr**3)                   (kbar)     P=   21.68
   0.00022186   0.00000000   0.00004491         32.64      0.00      6.61
   0.00000000   0.00022534   0.00000000          0.00     33.15      0.00
   0.00004491   0.00000000  -0.00000507          6.61      0.00     -0.75


     Writing output data file v2o5.O25-FCH.save
 
     init_run     :     25.99s CPU     27.04s WALL (       1 calls)
     electrons    :   2252.07s CPU   2275.78s WALL (       1 calls)
     forces       :    901.49s CPU    901.92s WALL (      41 calls)
     stress       :   1108.36s CPU   1110.49s WALL (       1 calls)

     Called by init_run:
     wfcinit      :     23.24s CPU     23.66s WALL (       1 calls)
     potinit      :      0.25s CPU      0.30s WALL (       1 calls)

     Called by electrons:
     c_bands      :   1901.03s CPU   1919.73s WALL (      33 calls)
     sum_band     :    307.98s CPU    310.46s WALL (      33 calls)
     v_of_rho     :      2.34s CPU      2.36s WALL (      34 calls)
     newd         :     34.53s CPU     34.55s WALL (      34 calls)
     mix_rho      :      2.86s CPU      2.88s WALL (      33 calls)

     Called by c_bands:
     init_us_2    :      2.28s CPU      2.81s WALL (    1280 calls)
     cegterg      :   1889.68s CPU   1905.33s WALL (     528 calls)

     Called by *egterg:
     h_psi        :   1038.80s CPU   1042.21s WALL (    2293 calls)
     s_psi        :     50.72s CPU     50.74s WALL (    2469 calls)
     g_psi        :      0.66s CPU      0.66s WALL (    1749 calls)
     cdiaghg      :    678.73s CPU    690.49s WALL (    2277 calls)

     Called by h_psi:
     add_vuspsi   :     43.17s CPU     43.29s WALL (    2293 calls)

     General routines
     calbec       :    151.47s CPU    151.97s WALL (    5626 calls)
     fft          :      4.08s CPU      4.10s WALL (    1088 calls)
     ffts         :      2.11s CPU      2.13s WALL (    1878 calls)
     fftw         :   1072.48s CPU   1076.11s WALL ( 1130114 calls)
     interpolate  :      0.62s CPU      0.63s WALL (     134 calls)
     davcio       :      0.61s CPU      6.26s WALL (    3760 calls)
 
     Parallel routines
     fft_scatter  :    906.30s CPU    909.32s WALL ( 1133080 calls)
 
     PWSCF        :     1h11m CPU        1h12m WALL

 
   This run was terminated on:  17:26:17  10Sep2018            

=------------------------------------------------------------------------------=
   JOB DONE.
=------------------------------------------------------------------------------=
