
     Program PWSCF v.4.3        starts on 29Aug2018 at 11:39: 3 

     This program is part of the open-source Quantum ESPRESSO suite
     for quantum simulation of materials; please cite
         "P. Giannozzi et al., J. Phys.:Condens. Matter 21 395502 (2009);
          URL http://www.quantum-espresso.org", 
     in publications or presentations arising from this work. More details at
     http://www.quantum-espresso.org/wiki/index.php/Citing_Quantum-ESPRESSO

     Parallel version (MPI), running on    64 processors
     R & G space division:  proc/pool =   64

     Current dimensions of program PWSCF are:
     Max number of different atomic species (ntypx) = **
     Max number of k-points (npk) =  40000
     Max angular momentum in pseudopotentials (lmaxx) =  3
     Waiting for input...

     Atomic positions and unit cell read from directory:
     ./tio2.O25-FCH.save/
 

     Subspace diagonalization in iterative solution of the eigenvalue problem:
     parallel, distributed-memory algorithm (size of sub-group:  5*  5 procs)

 
   Stick Mesh
   ----------
   nst =  7177,  nstw =   717, nsts =  2877
               n.st   n.stw   n.sts    n.g    n.gw   n.gs
   min         112      11      44    6910     217    1731
   max         114      12      45    6918     219    1759
       7177     717    2877  442525   13937  111903
 


     bravais-lattice index     =           14
     lattice parameter (a_0)   =      17.3432  a.u.
     unit-cell volume          =    5043.2518 (a.u.)^3
     number of atoms/cell      =           72
     number of atomic types    =            3
     number of electrons       =       576.00
     number of Kohn-Sham states=         1035
     kinetic-energy cutoff     =      30.0000  Ry
     charge density cutoff     =     300.0000  Ry
     Exchange-correlation      = SLA  PW   PBE  PBE (1434)
     EXX-fraction              =        0.00

     celldm(1)=  17.343151  celldm(2)=   1.000000  celldm(3)=   0.966778
     celldm(4)=   0.000000  celldm(5)=   0.000000  celldm(6)=   0.000000

     crystal axes: (cart. coord. in units of a_0)
               a(1) = (   1.000000   0.000000   0.000000 )  
               a(2) = (   0.000000   1.000000   0.000000 )  
               a(3) = (   0.000000   0.000000   0.966778 )  

     reciprocal axes: (cart. coord. in units 2 pi/a_0)
               b(1) = (  1.000000  0.000000  0.000000 )  
               b(2) = (  0.000000  1.000000  0.000000 )  
               b(3) = (  0.000000  0.000000  1.034364 )  


     PseudoPot. # 1 for O  read from file O.pbe-van_bm.UPF
     MD5 check sum: ca2828d9fb1f294809e918903b7648d1
     Pseudo is Ultrasoft, Zval =  6.0
     Generated by new atomic code, or converted to UPF format
     Using radial grid of  737 points,  4 beta functions with: 
                l(1) =   0
                l(2) =   0
                l(3) =   1
                l(4) =   1
     Q(r) pseudized with  8 coefficients,  rinner =    0.800   0.800   0.800


     PseudoPot. # 2 for Ti read from file Ti.pbe-van-yufengl.UPF
     MD5 check sum: c6a5a6e2bd61e71584bd4e9d5b89d6cc
     Pseudo is Ultrasoft, Zval = 12.0
     Generated by new atomic code, or converted to UPF format
     Using radial grid of  851 points,  6 beta functions with: 
                l(1) =   0
                l(2) =   0
                l(3) =   1
                l(4) =   1
                l(5) =   2
                l(6) =   2
     Q(r) pseudized with  6 coefficients,  rinner =    0.700   0.700   0.700
                                                       0.700   0.700

     PseudoPot. # 3 for ox read from file O.pbe-van-dgp-1s1.UPF
     MD5 check sum: 2083901d62884ac3a15d661bda1575b3
     Pseudo is Ultrasoft, Zval =  7.0
     Generated by new atomic code, or converted to UPF format
     Using radial grid of  737 points,  4 beta functions with: 
                l(1) =   0
                l(2) =   0
                l(3) =   1
                l(4) =   1
     Q(r) pseudized with  8 coefficients,  rinner =    0.800   0.800   0.800


     atomic species   valence    mass     pseudopotential
        O              6.00    15.99900     O ( 1.00)
        Ti            12.00    47.86700     Ti( 1.00)
        OX             7.00    15.99900     ox( 1.00)

     Starting magnetic structure 
     atomic species   magnetization
        O            0.000
        Ti           0.010
        OX           0.000

      4 Sym.Ops. (no inversion)


   Cartesian axes

     site n.     atom                  positions (a_0 units)
         1           Ti  tau(  1) = (   0.0000000   0.0000000   0.0000000  )
         2           Ti  tau(  2) = (   0.0000000   0.0000000   0.3222585  )
         3           Ti  tau(  3) = (   0.0000000   0.0000000   0.6445171  )
         4           Ti  tau(  4) = (   0.0000000   0.4999978   0.0000000  )
         5           Ti  tau(  5) = (   0.0000000   0.4999978   0.3222585  )
         6           Ti  tau(  6) = (   0.0000000   0.4999978   0.6445171  )
         7           Ti  tau(  7) = (   0.4999978   0.0000000   0.0000000  )
         8           Ti  tau(  8) = (   0.4999978   0.0000000   0.3222585  )
         9           Ti  tau(  9) = (   0.4999978   0.0000000   0.6445171  )
        10           Ti  tau( 10) = (   0.4999978   0.4999978   0.0000000  )
        11           Ti  tau( 11) = (   0.4999978   0.4999978   0.3222585  )
        12           Ti  tau( 12) = (   0.4999978   0.4999978   0.6445171  )
        13           Ti  tau( 13) = (   0.2499989   0.2499989   0.1611293  )
        14           Ti  tau( 14) = (   0.2499989   0.2499989   0.4833878  )
        15           Ti  tau( 15) = (   0.2499989   0.2499989   0.8056464  )
        16           Ti  tau( 16) = (   0.2499989   0.7499967   0.1611293  )
        17           Ti  tau( 17) = (   0.2499989   0.7499967   0.4833878  )
        18           Ti  tau( 18) = (   0.2499989   0.7499967   0.8056464  )
        19           Ti  tau( 19) = (   0.7499967   0.2499989   0.1611293  )
        20           Ti  tau( 20) = (   0.7499967   0.2499989   0.4833878  )
        21           Ti  tau( 21) = (   0.7499967   0.2499989   0.8056464  )
        22           Ti  tau( 22) = (   0.7499967   0.7499967   0.1611293  )
        23           Ti  tau( 23) = (   0.7499967   0.7499967   0.4833878  )
        24           Ti  tau( 24) = (   0.7499967   0.7499967   0.8056464  )
        25           OX  tau( 25) = (   0.1511643   0.1511643   0.0000000  )
        26           O   tau( 26) = (   0.1511643   0.1511643   0.3222585  )
        27           O   tau( 27) = (   0.1511643   0.1511643   0.6445171  )
        28           O   tau( 28) = (   0.1511643   0.6511621   0.0000000  )
        29           O   tau( 29) = (   0.1511643   0.6511621   0.3222585  )
        30           O   tau( 30) = (   0.1511643   0.6511621   0.6445171  )
        31           O   tau( 31) = (   0.6511621   0.1511643   0.0000000  )
        32           O   tau( 32) = (   0.6511621   0.1511643   0.3222585  )
        33           O   tau( 33) = (   0.6511621   0.1511643   0.6445171  )
        34           O   tau( 34) = (   0.6511621   0.6511621   0.0000000  )
        35           O   tau( 35) = (   0.6511621   0.6511621   0.3222585  )
        36           O   tau( 36) = (   0.6511621   0.6511621   0.6445171  )
        37           O   tau( 37) = (   0.3488335   0.3488335   0.0000000  )
        38           O   tau( 38) = (   0.3488335   0.3488335   0.3222585  )
        39           O   tau( 39) = (   0.3488335   0.3488335   0.6445171  )
        40           O   tau( 40) = (   0.3488335   0.8488313   0.0000000  )
        41           O   tau( 41) = (   0.3488335   0.8488313   0.3222585  )
        42           O   tau( 42) = (   0.3488335   0.8488313   0.6445171  )
        43           O   tau( 43) = (   0.8488313   0.3488335   0.0000000  )
        44           O   tau( 44) = (   0.8488313   0.3488335   0.3222585  )
        45           O   tau( 45) = (   0.8488313   0.3488335   0.6445171  )
        46           O   tau( 46) = (   0.8488313   0.8488313   0.0000000  )
        47           O   tau( 47) = (   0.8488313   0.8488313   0.3222585  )
        48           O   tau( 48) = (   0.8488313   0.8488313   0.6445171  )
        49           O   tau( 49) = (   0.0988346   0.4011633   0.1611293  )
        50           O   tau( 50) = (   0.0988346   0.4011633   0.4833878  )
        51           O   tau( 51) = (   0.0988346   0.4011633   0.8056464  )
        52           O   tau( 52) = (   0.0988346   0.9011611   0.1611293  )
        53           O   tau( 53) = (   0.0988346   0.9011611   0.4833878  )
        54           O   tau( 54) = (   0.0988346   0.9011611   0.8056464  )
        55           O   tau( 55) = (   0.5988324   0.4011633   0.1611293  )
        56           O   tau( 56) = (   0.5988324   0.4011633   0.4833878  )
        57           O   tau( 57) = (   0.5988324   0.4011633   0.8056464  )
        58           O   tau( 58) = (   0.5988324   0.9011611   0.1611293  )
        59           O   tau( 59) = (   0.5988324   0.9011611   0.4833878  )
        60           O   tau( 60) = (   0.5988324   0.9011611   0.8056464  )
        61           O   tau( 61) = (   0.4011633   0.0988346   0.1611293  )
        62           O   tau( 62) = (   0.4011633   0.0988346   0.4833878  )
        63           O   tau( 63) = (   0.4011633   0.0988346   0.8056464  )
        64           O   tau( 64) = (   0.4011633   0.5988324   0.1611293  )
        65           O   tau( 65) = (   0.4011633   0.5988324   0.4833878  )
        66           O   tau( 66) = (   0.4011633   0.5988324   0.8056464  )
        67           O   tau( 67) = (   0.9011611   0.0988346   0.1611293  )
        68           O   tau( 68) = (   0.9011611   0.0988346   0.4833878  )
        69           O   tau( 69) = (   0.9011611   0.0988346   0.8056464  )
        70           O   tau( 70) = (   0.9011611   0.5988324   0.1611293  )
        71           O   tau( 71) = (   0.9011611   0.5988324   0.4833878  )
        72           O   tau( 72) = (   0.9011611   0.5988324   0.8056464  )

     number of k points=     2  Fermi-Dirac smearing, width (Ry)=  0.0019
                       cart. coord. in units 2pi/a_0
        k(    1) = (   0.0000000   0.0000000   0.0000000), wk =   1.0000000
        k(    2) = (   0.0000000   0.0000000   0.0000000), wk =   1.0000000

     G cutoff = 2285.6909  ( 442525 G-vectors)     FFT grid: ( 96, 96, 96)
     G cutoff =  914.2764  ( 111903 G-vectors)  smooth grid: ( 64, 64, 60)

     Largest allocated arrays     est. size (Mb)     dimensions
        Kohn-Sham Wavefunctions         3.43 Mb     (    217,1035)
        NL pseudopotentials             2.70 Mb     (    217, 816)
        Each V/rho on FFT grid          0.56 Mb     (  18432,   2)
        Each G-vector array             0.05 Mb     (   6911)
        G-vector shells                 0.03 Mb     (   3324)
     Largest temporary arrays     est. size (Mb)     dimensions
        Auxiliary wavefunctions        13.71 Mb     (    217,4140)
        Each subspace H/S matrix      261.53 Mb     (   4140,4140)
        Each <psi_i|beta_j> matrix     12.89 Mb     (    816,1035)

     The potential is recalculated from file :
     ./tio2.O25-FCH.save/charge-density.dat

     Starting wfc are  432 atomic +  603 random wfc

     total cpu time spent up to now is      2.83 secs

     per-process dynamical memory:    66.7 Mb

     Band Structure Calculation
     Davidson diagonalization with overlap

     ethr =  1.74E-12,  avg # of iterations = 61.5

     total cpu time spent up to now is    821.21 secs

     End of band structure calculation

 ------ SPIN UP ------------


          k = 0.0000 0.0000 0.0000     band energies (ev):

   -48.2108 -48.1891 -48.0647 -47.7432 -47.6991 -47.6797 -47.6546 -47.6541
   -47.6314 -47.6187 -47.6184 -47.6154 -47.6149 -47.6024 -47.6017 -47.6005
   -47.5956 -47.5948 -47.5943 -47.5828 -47.5760 -47.5639 -47.5636 -47.5504
   -24.7791 -24.5866 -24.4859 -24.4239 -24.4059 -24.3982 -24.3847 -24.3665
   -24.2734 -24.1620 -24.1074 -24.1070 -24.0947 -24.0827 -24.0805 -24.0779
   -24.0659 -24.0626 -24.0599 -24.0591 -24.0561 -24.0432 -24.0415 -24.0091
   -23.9810 -23.9711 -23.9658 -23.9364 -23.9334 -23.9271 -23.9213 -23.9162
   -23.9153 -23.9057 -23.8870 -23.8863 -23.8780 -23.8757 -23.8684 -23.8609
   -23.8529 -23.8525 -23.8490 -23.8487 -23.8441 -23.8421 -23.8350 -23.8336
   -23.8297 -23.8265 -23.8195 -23.8174 -23.8155 -23.8101 -23.8010 -23.7984
   -23.7942 -23.7884 -23.7854 -23.7847 -23.7815 -23.7804 -23.7697 -23.7665
   -23.7657 -23.7613 -23.7601 -23.7570 -23.7308 -23.7188 -23.7153 -23.7070
   -12.9263  -9.0336  -8.4593  -8.3970  -8.3136  -8.2906  -8.2799  -8.2532
    -8.2204  -8.1706  -8.0292  -8.0046  -7.9861  -7.9575  -7.9355  -7.9240
    -7.8922  -7.8882  -7.8277  -7.7729  -7.7584  -7.7336  -7.7033  -7.6946
    -7.6270  -7.6219  -7.5855  -7.5843  -7.5572  -7.5470  -7.5349  -7.5211
    -7.4884  -7.4555  -7.4451  -7.4345  -7.4134  -7.4123  -7.3997  -7.3941
    -7.3917  -7.3787  -7.3660  -7.3561  -7.2752  -7.2696  -7.1540  -7.1367
     0.8707   1.3506   2.0924   3.4880   3.6471   3.7664   3.9008   4.2803
     4.3325   4.3522   4.3597   4.4110   4.4525   4.4721   4.4722   4.5076
     4.5257   4.5472   4.5780   4.5913   4.6089   4.6241   4.6623   4.6785
     4.6811   4.6854   4.6870   4.7109   4.7171   4.7213   4.7271   4.8615
     4.9182   4.9357   4.9401   4.9643   4.9928   5.0058   5.0130   5.2038
     5.2067   5.2068   5.2109   5.3205   5.3404   5.3783   5.4209   5.4708
     5.4731   5.4863   5.5145   5.5504   5.5574   5.5846   5.6115   5.6642
     5.7152   5.7196   5.7204   5.7762   5.8004   5.8022   5.8170   5.8504
     5.8998   5.9189   5.9490   5.9570   5.9669   5.9929   6.0804   6.0807
     6.1257   6.1261   6.1513   6.1870   6.3251   6.3745   6.4103   6.4225
     6.5032   6.5110   6.5176   6.5190   6.5242   6.6507   6.6531   6.7626
     6.7627   6.8719   6.9073   6.9120   6.9434   7.0216   7.1112   7.1242
     7.1438   7.1780   7.2383   7.2564   7.3665   7.3917   7.3935   7.3959
     7.3999   7.4213   7.4469   7.5146   7.5395   7.5579   7.6179   7.6234
     7.6426   7.6506   7.6723   7.6843   7.7037   7.7116   7.8978   7.9048
     7.9226   8.0536   8.1251   8.1275   8.1399   8.2098   8.2166   8.2287
     8.2597   8.2628   8.2749   8.2850   8.3161   8.3210   8.3265   8.3285
     8.4444   8.4970   8.5227   8.5305   8.5530   8.7616   8.7870   9.2702
    10.8230  11.0623  11.1117  11.2422  11.2759  11.3046  11.3903  11.3957
    11.4179  11.5259  11.5307  11.5414  11.5573  11.5880  11.6010  11.6211
    11.6326  11.6424  11.6751  11.6987  11.7450  11.7760  11.7865  11.7938
    11.8905  11.9241  12.0474  12.0973  12.1451  12.1582  12.1635  12.1835
    12.2034  12.2037  12.2190  12.2512  12.2615  12.2712  12.2880  12.3311
    12.3391  12.3445  12.3460  12.4403  12.4577  12.4721  12.4821  12.5080
    12.5084  12.5105  12.5310  12.5537  12.5856  12.6286  12.6411  12.6464
    12.7207  12.8257  12.8482  12.9068  12.9272  12.9948  13.0109  13.0186
    13.0494  13.0540  13.0704  13.0763  13.0834  13.0946  13.0990  13.5812
    13.8120  13.8313  13.9215  14.0990  14.1172  14.1597  14.2018  14.2115
    14.2348  14.4324  14.5371  14.6380  14.8086  14.9963  15.0131  15.0829
    15.1658  15.1675  15.1777  15.1912  15.2116  15.2213  15.2374  15.2469
    15.3092  15.3375  15.3511  15.3538  15.3657  15.3931  15.4262  15.4442
    15.4480  15.5149  15.5170  15.6980  15.7629  15.7736  15.8301  15.9508
    16.0522  16.1282  16.1288  16.1472  16.1744  16.1910  16.1991  16.9248
    17.0696  19.1842  19.3554  19.4364  19.5132  19.7103  19.7661  20.4637
    20.5330  20.8140  20.8402  20.8687  20.9196  20.9572  20.9751  21.0606
    21.1515  21.1593  21.1642  21.1765  21.1801  21.2041  21.2080  22.2438
    22.2961  22.6686  22.6785  22.7270  22.7460  23.0975  23.1637  23.3567
    23.3683  23.4046  23.4195  23.6465  23.6712  23.7956  23.8045  23.8520
    23.9735  23.9791  24.0978  24.1082  24.1677  24.2108  24.2688  24.2700
    24.2941  24.2977  24.3378  24.3383  24.4311  24.4336  24.4608  24.4682
    24.8484  24.9435  25.0417  25.0441  25.1215  25.1231  25.1558  25.1736
    25.1938  25.1997  25.2305  25.2321  25.2376  25.3870  25.5566  25.5651
    25.5817  25.6210  25.6340  25.6446  25.6777  25.6999  25.8075  25.8127
    26.5647  26.6472  26.6926  26.7334  26.7412  26.7977  26.9753  27.2437
    27.3539  27.3583  27.3968  27.4185  27.4247  27.4509  27.4889  27.4959
    27.5009  27.5836  27.5917  27.6253  27.6559  27.7315  27.7362  27.8031
    27.8589  27.8594  27.8777  27.8871  27.9100  27.9106  27.9312  27.9607
    27.9633  28.4921  28.5233  28.5326  28.5501  28.5785  28.5882  28.6212
    28.6334  28.6426  28.7490  28.7896  29.1229  29.1504  29.1789  29.1833
    29.2334  29.2474  29.2480  29.2505  30.0836  30.1057  30.4721  30.5846
    30.6120  30.6986  30.7216  30.7933  30.8068  31.0090  31.0634  31.5073
    31.5316  31.8385  31.8967  31.9726  31.9974  32.1087  32.2223  32.3677
    32.3858  32.4337  32.4659  32.4736  32.4839  32.4861  32.4977  32.5131
    32.5204  32.5309  32.5320  32.5581  32.9475  33.0252  33.0588  33.0638
    33.1050  33.2029  33.2692  33.2747  33.3831  33.3836  33.8209  33.8229
    33.8721  33.8965  34.3631  34.3800  34.4766  34.5084  34.5242  34.5326
    34.5518  34.8805  34.8859  34.9717  35.0678  35.1014  35.1190  35.1578
    35.1813  35.2518  35.2734  35.3142  35.3743  35.3967  35.4017  35.4238
    35.4312  35.4347  35.4372  35.4598  35.5099  35.5113  35.6067  35.6345
    35.6434  35.6491  35.6898  35.7055  35.7103  35.7146  35.7433  35.7550
    35.7662  35.7733  35.9888  36.2274  36.2430  36.7433  36.7716  36.9022
    36.9245  36.9667  36.9799  36.9816  36.9866  37.0053  37.0068  37.0290
    37.0327  37.0547  37.0695  37.1340  37.1492  37.1515  37.1809  37.6502
    37.8089  37.9277  37.9281  38.0342  38.0462  38.1019  38.1124  38.1375
    38.1433  38.1508  38.1596  38.1672  38.2870  38.3034  38.4998  38.5005
    38.5330  38.5592  38.9400  38.9501  39.2518  39.3329  39.3727  39.3862
    39.3963  39.4266  39.4565  39.4607  39.5069  39.5262  39.5354  39.5396
    39.6310  39.6370  40.4099  40.4114  40.4420  40.4452  40.6984  40.9207
    40.9261  41.0410  41.1718  41.1836  41.3264  41.5417  41.6882  41.8878
    41.9204  41.9530  41.9695  42.0371  42.1036  42.1155  42.1302  42.1402
    42.1564  42.1614  42.1631  42.1646  42.1823  42.1949  42.2116  42.6073
    42.6125  42.6504  42.6761  42.7107  42.7183  42.7239  42.7373  42.7573
    42.7861  42.7909  42.7937  42.8813  42.8966  42.9138  42.9555  42.9969
    43.2066  43.2079  43.4444  43.4460  43.6729  43.6789  43.6824  43.7139
    44.4397  44.4993  44.5685  44.5982  44.6015  44.6184  44.6509  44.6518
    44.6589  44.6691  44.9340  44.9905  44.9923  45.0314  45.1531  45.2017
    45.2211  45.2247  45.2452  45.4021  45.4028  45.4359  45.4781  45.4967
    45.5000  45.5202  45.5233  45.5281  45.5303  45.5626  45.5743  45.8035
    45.8524  45.8992  46.0262  46.1424  46.2679  46.2896  46.3162  46.3347
    46.3982  46.4157  46.4819  46.4867  46.5196  46.5397  46.5484  46.6110
    46.6426  46.6585  46.6639  46.6844  46.7531  46.7688  46.8512  46.9010
    46.9070  46.9169  46.9557  46.9795  47.1661  47.1818  47.1974  47.2421
    47.5501  47.5678  47.6099  47.6886  47.6996  47.7966  47.8430  47.8945
    47.9159  47.9449  47.9775  47.9845  47.9888  47.9978  48.0090  48.0233
    48.0339  48.0462  48.0474  48.0638  48.0679  48.0729  48.0731  48.0741
    48.1079  48.1093  48.1112  48.1345  48.1548  48.1617  48.3239  48.3284
    48.3325  48.3475  48.3669  48.3813  48.3856  48.3946  48.7982  48.8501
    48.8563  48.8718  48.8956  48.9184  48.9783  49.0135  49.0678  49.0702
    49.0903  49.1258  49.1425  49.1475  49.1560  49.1624  49.1685  49.2623
    49.2657  49.3698  49.3864  49.3874  49.4187  49.5772  49.6201  49.6798
    49.6867  49.6944  49.7953  49.8189  49.8225  49.8345  49.9656  49.9780
    49.9829  50.0100  50.0213  50.0289  50.0453  50.0662  50.0779  50.1169
    50.1322  50.1488  50.2242  50.5943  50.6222  50.6291  50.6331  50.6460
    50.6504  50.6554  50.6616  50.6804  50.6824  50.6928  50.7022  50.7386
    50.7547  50.7667  51.0751  51.1227  51.3615  51.4621  51.4723  51.4769
    51.4878  51.5026  51.7851  51.8158  51.9375  51.9411  51.9492  51.9493
    51.9646  51.9706  52.2476  52.3257  52.3677  52.3886  52.3903  52.3980
    52.4193  52.4198  52.6289  52.6323  52.6750  52.6932  52.7059  52.7233
    52.7796  53.0787  53.0812  53.0835  53.0999  53.1167  53.1454  53.1658
    53.1994  53.2020  53.2332  53.3414  53.3445  53.3460  53.3549  53.3608
    53.3993  53.4195  53.5058  53.5618  53.6530  53.7272  53.7807  53.7845
    53.8415  53.8475  53.8589  53.8725  53.8847  53.8961  53.9037  53.9047
    53.9121  53.9307  54.1192  54.1317  54.2247  54.7591  54.8458  54.8869
    54.8918  54.9326  54.9586  54.9706  54.9890  55.0004  55.0008  55.0044
    55.0306  55.1008  55.1044  55.1269  55.1430  55.2835  55.3440  55.3538
    55.4848  55.4857  55.5221  55.6442  56.2761  56.3515  56.3664  56.3941
    56.4081  56.6009  56.6330  56.6467  56.6574  56.6683  56.6707  56.6734
    56.6843  56.7468  56.8057  56.8097  56.8179  56.8418  56.8477  56.8629
    56.8658  57.0217  57.0314  57.1130  57.1138  57.7083  57.8113  57.8271
    57.8393  57.8606  57.8657  57.8765  57.8781  57.8846  57.8896  57.9035
    57.9173  58.1473  58.1682  58.1852  58.2106  58.2222  58.2357  58.5191
    58.5219  58.8316  58.8791

 ------ SPIN DOWN ----------


          k = 0.0000 0.0000 0.0000     band energies (ev):

   -48.2108 -48.1891 -48.0647 -47.7432 -47.6991 -47.6797 -47.6546 -47.6541
   -47.6314 -47.6187 -47.6184 -47.6154 -47.6149 -47.6024 -47.6017 -47.6005
   -47.5956 -47.5948 -47.5943 -47.5828 -47.5760 -47.5639 -47.5636 -47.5504
   -24.7791 -24.5866 -24.4859 -24.4239 -24.4059 -24.3982 -24.3847 -24.3665
   -24.2734 -24.1620 -24.1074 -24.1070 -24.0947 -24.0827 -24.0805 -24.0779
   -24.0659 -24.0626 -24.0599 -24.0591 -24.0561 -24.0432 -24.0415 -24.0091
   -23.9810 -23.9711 -23.9658 -23.9364 -23.9334 -23.9271 -23.9213 -23.9162
   -23.9153 -23.9057 -23.8870 -23.8863 -23.8780 -23.8757 -23.8684 -23.8609
   -23.8529 -23.8525 -23.8490 -23.8487 -23.8441 -23.8421 -23.8350 -23.8336
   -23.8297 -23.8265 -23.8195 -23.8174 -23.8155 -23.8101 -23.8010 -23.7984
   -23.7942 -23.7884 -23.7854 -23.7847 -23.7815 -23.7804 -23.7697 -23.7665
   -23.7657 -23.7613 -23.7601 -23.7570 -23.7308 -23.7188 -23.7153 -23.7070
   -12.9263  -9.0336  -8.4593  -8.3970  -8.3136  -8.2906  -8.2799  -8.2532
    -8.2204  -8.1706  -8.0292  -8.0046  -7.9861  -7.9575  -7.9355  -7.9240
    -7.8922  -7.8882  -7.8277  -7.7729  -7.7584  -7.7336  -7.7033  -7.6946
    -7.6270  -7.6219  -7.5855  -7.5843  -7.5572  -7.5470  -7.5349  -7.5211
    -7.4884  -7.4555  -7.4451  -7.4345  -7.4134  -7.4123  -7.3997  -7.3941
    -7.3917  -7.3787  -7.3660  -7.3561  -7.2752  -7.2696  -7.1540  -7.1367
     0.8707   1.3506   2.0924   3.4880   3.6471   3.7664   3.9008   4.2803
     4.3325   4.3522   4.3597   4.4110   4.4525   4.4721   4.4722   4.5076
     4.5257   4.5472   4.5780   4.5913   4.6089   4.6241   4.6623   4.6785
     4.6811   4.6854   4.6870   4.7109   4.7171   4.7213   4.7271   4.8615
     4.9182   4.9357   4.9401   4.9643   4.9928   5.0058   5.0130   5.2038
     5.2067   5.2068   5.2109   5.3205   5.3404   5.3783   5.4209   5.4708
     5.4731   5.4863   5.5145   5.5504   5.5574   5.5846   5.6115   5.6642
     5.7152   5.7196   5.7204   5.7762   5.8004   5.8022   5.8170   5.8504
     5.8998   5.9189   5.9490   5.9570   5.9669   5.9929   6.0804   6.0807
     6.1257   6.1261   6.1513   6.1870   6.3251   6.3745   6.4103   6.4225
     6.5032   6.5110   6.5176   6.5190   6.5242   6.6507   6.6531   6.7626
     6.7627   6.8719   6.9073   6.9120   6.9434   7.0216   7.1112   7.1242
     7.1438   7.1780   7.2383   7.2564   7.3665   7.3917   7.3935   7.3959
     7.3999   7.4213   7.4469   7.5146   7.5395   7.5579   7.6179   7.6234
     7.6426   7.6506   7.6723   7.6843   7.7037   7.7116   7.8978   7.9048
     7.9226   8.0536   8.1251   8.1276   8.1399   8.2098   8.2166   8.2287
     8.2597   8.2628   8.2749   8.2850   8.3161   8.3210   8.3265   8.3285
     8.4444   8.4970   8.5227   8.5305   8.5530   8.7616   8.7870   9.2702
    10.8230  11.0623  11.1117  11.2422  11.2759  11.3046  11.3903  11.3957
    11.4179  11.5259  11.5307  11.5414  11.5573  11.5880  11.6010  11.6211
    11.6326  11.6424  11.6751  11.6987  11.7450  11.7760  11.7865  11.7938
    11.8905  11.9241  12.0474  12.0973  12.1451  12.1582  12.1635  12.1835
    12.2033  12.2037  12.2190  12.2512  12.2615  12.2712  12.2880  12.3311
    12.3391  12.3445  12.3460  12.4403  12.4577  12.4721  12.4821  12.5080
    12.5084  12.5105  12.5310  12.5537  12.5856  12.6286  12.6411  12.6464
    12.7207  12.8257  12.8482  12.9068  12.9272  12.9948  13.0109  13.0186
    13.0494  13.0540  13.0704  13.0763  13.0834  13.0946  13.0990  13.5812
    13.8120  13.8313  13.9215  14.0990  14.1172  14.1597  14.2018  14.2115
    14.2348  14.4324  14.5371  14.6380  14.8086  14.9963  15.0131  15.0829
    15.1658  15.1675  15.1777  15.1912  15.2116  15.2213  15.2374  15.2469
    15.3092  15.3375  15.3511  15.3538  15.3657  15.3931  15.4262  15.4442
    15.4480  15.5149  15.5170  15.6980  15.7629  15.7736  15.8301  15.9508
    16.0522  16.1282  16.1288  16.1472  16.1744  16.1910  16.1991  16.9248
    17.0696  19.1842  19.3554  19.4364  19.5132  19.7103  19.7661  20.4637
    20.5330  20.8140  20.8402  20.8687  20.9196  20.9572  20.9751  21.0606
    21.1515  21.1593  21.1642  21.1765  21.1801  21.2041  21.2080  22.2438
    22.2961  22.6686  22.6785  22.7270  22.7460  23.0975  23.1637  23.3567
    23.3683  23.4046  23.4195  23.6465  23.6712  23.7956  23.8045  23.8520
    23.9735  23.9791  24.0978  24.1082  24.1677  24.2108  24.2688  24.2700
    24.2941  24.2977  24.3378  24.3383  24.4311  24.4336  24.4608  24.4682
    24.8484  24.9435  25.0417  25.0441  25.1215  25.1231  25.1558  25.1736
    25.1938  25.1997  25.2305  25.2321  25.2376  25.3870  25.5566  25.5651
    25.5817  25.6210  25.6340  25.6446  25.6777  25.6999  25.8075  25.8127
    26.5647  26.6472  26.6926  26.7334  26.7412  26.7976  26.9753  27.2437
    27.3539  27.3583  27.3968  27.4185  27.4247  27.4509  27.4889  27.4959
    27.5009  27.5836  27.5917  27.6253  27.6559  27.7315  27.7362  27.8031
    27.8589  27.8594  27.8777  27.8871  27.9100  27.9106  27.9312  27.9607
    27.9633  28.4921  28.5233  28.5326  28.5501  28.5785  28.5882  28.6212
    28.6334  28.6426  28.7490  28.7896  29.1229  29.1504  29.1789  29.1833
    29.2334  29.2474  29.2480  29.2505  30.0836  30.1057  30.4721  30.5846
    30.6120  30.6986  30.7216  30.7933  30.8068  31.0090  31.0634  31.5073
    31.5316  31.8385  31.8967  31.9726  31.9974  32.1087  32.2223  32.3677
    32.3858  32.4337  32.4659  32.4736  32.4839  32.4861  32.4977  32.5131
    32.5204  32.5309  32.5320  32.5581  32.9475  33.0252  33.0588  33.0638
    33.1050  33.2029  33.2692  33.2747  33.3831  33.3836  33.8209  33.8229
    33.8721  33.8965  34.3631  34.3800  34.4766  34.5084  34.5242  34.5326
    34.5518  34.8805  34.8859  34.9717  35.0678  35.1014  35.1190  35.1578
    35.1813  35.2518  35.2734  35.3142  35.3743  35.3967  35.4017  35.4238
    35.4312  35.4347  35.4372  35.4598  35.5099  35.5113  35.6067  35.6345
    35.6434  35.6491  35.6898  35.7055  35.7103  35.7146  35.7433  35.7550
    35.7662  35.7733  35.9888  36.2274  36.2430  36.7433  36.7716  36.9022
    36.9245  36.9667  36.9799  36.9816  36.9866  37.0053  37.0068  37.0290
    37.0327  37.0547  37.0695  37.1340  37.1492  37.1515  37.1809  37.6502
    37.8089  37.9277  37.9281  38.0342  38.0462  38.1019  38.1124  38.1375
    38.1433  38.1508  38.1596  38.1672  38.2870  38.3034  38.4998  38.5005
    38.5330  38.5592  38.9400  38.9501  39.2518  39.3329  39.3727  39.3862
    39.3963  39.4266  39.4565  39.4607  39.5069  39.5262  39.5354  39.5396
    39.6310  39.6370  40.4099  40.4114  40.4420  40.4452  40.6984  40.9207
    40.9261  41.0410  41.1718  41.1836  41.3264  41.5417  41.6882  41.8878
    41.9204  41.9530  41.9695  42.0371  42.1036  42.1155  42.1302  42.1402
    42.1564  42.1614  42.1631  42.1646  42.1823  42.1949  42.2116  42.6073
    42.6125  42.6504  42.6761  42.7107  42.7183  42.7239  42.7373  42.7573
    42.7861  42.7909  42.7937  42.8813  42.8966  42.9138  42.9555  42.9969
    43.2066  43.2079  43.4444  43.4460  43.6729  43.6789  43.6824  43.7139
    44.4397  44.4993  44.5685  44.5982  44.6015  44.6184  44.6509  44.6518
    44.6589  44.6691  44.9340  44.9905  44.9923  45.0314  45.1531  45.2017
    45.2211  45.2247  45.2452  45.4021  45.4028  45.4359  45.4781  45.4967
    45.5000  45.5202  45.5233  45.5281  45.5303  45.5626  45.5743  45.8035
    45.8524  45.8992  46.0262  46.1424  46.2679  46.2896  46.3162  46.3347
    46.3982  46.4157  46.4819  46.4867  46.5196  46.5397  46.5484  46.6110
    46.6426  46.6585  46.6639  46.6844  46.7531  46.7688  46.8512  46.9010
    46.9070  46.9169  46.9557  46.9795  47.1661  47.1818  47.1974  47.2421
    47.5501  47.5678  47.6099  47.6886  47.6996  47.7966  47.8430  47.8945
    47.9159  47.9449  47.9775  47.9845  47.9888  47.9978  48.0090  48.0233
    48.0339  48.0462  48.0474  48.0638  48.0679  48.0729  48.0731  48.0741
    48.1079  48.1093  48.1112  48.1345  48.1548  48.1617  48.3239  48.3284
    48.3325  48.3475  48.3669  48.3813  48.3856  48.3946  48.7982  48.8501
    48.8563  48.8718  48.8956  48.9184  48.9783  49.0135  49.0678  49.0702
    49.0903  49.1258  49.1425  49.1475  49.1560  49.1624  49.1685  49.2623
    49.2657  49.3698  49.3864  49.3874  49.4187  49.5772  49.6201  49.6798
    49.6867  49.6944  49.7953  49.8189  49.8225  49.8345  49.9656  49.9780
    49.9829  50.0100  50.0213  50.0289  50.0453  50.0662  50.0779  50.1169
    50.1322  50.1488  50.2242  50.5943  50.6222  50.6291  50.6331  50.6460
    50.6504  50.6554  50.6616  50.6804  50.6824  50.6928  50.7022  50.7386
    50.7547  50.7667  51.0751  51.1227  51.3615  51.4621  51.4723  51.4769
    51.4878  51.5026  51.7851  51.8158  51.9375  51.9411  51.9492  51.9493
    51.9646  51.9706  52.2476  52.3257  52.3677  52.3886  52.3903  52.3980
    52.4193  52.4198  52.6289  52.6323  52.6750  52.6932  52.7059  52.7233
    52.7796  53.0787  53.0812  53.0834  53.0999  53.1167  53.1454  53.1658
    53.1994  53.2020  53.2332  53.3414  53.3445  53.3460  53.3549  53.3608
    53.3993  53.4195  53.5058  53.5618  53.6530  53.7272  53.7807  53.7845
    53.8415  53.8475  53.8589  53.8725  53.8847  53.8961  53.9037  53.9047
    53.9121  53.9307  54.1192  54.1317  54.2247  54.7591  54.8458  54.8869
    54.8918  54.9326  54.9586  54.9706  54.9890  55.0004  55.0008  55.0044
    55.0306  55.1008  55.1044  55.1269  55.1430  55.2835  55.3440  55.3538
    55.4848  55.4857  55.5221  55.6442  56.2761  56.3515  56.3664  56.3941
    56.4081  56.6009  56.6330  56.6467  56.6574  56.6683  56.6707  56.6734
    56.6843  56.7468  56.8057  56.8097  56.8179  56.8418  56.8477  56.8629
    56.8658  57.0217  57.0314  57.1130  57.1138  57.7083  57.8113  57.8271
    57.8393  57.8606  57.8657  57.8765  57.8781  57.8846  57.8896  57.9035
    57.9173  58.1473  58.1682  58.1852  58.2106  58.2222  58.2357  58.5191
    58.5219  58.8316  58.8791

     the Fermi energy is     9.9401 ev

     Writing output data file tio2.O25-FCH.save
 
     init_run     :      1.95s CPU      2.57s WALL (       1 calls)
     electrons    :    816.18s CPU    818.41s WALL (       1 calls)

     Called by init_run:
     wfcinit      :      0.00s CPU      0.00s WALL (       1 calls)
     potinit      :      0.15s CPU      0.15s WALL (       1 calls)

     Called by electrons:
     c_bands      :    816.16s CPU    818.38s WALL (       1 calls)
     v_of_rho     :      0.06s CPU      0.06s WALL (       1 calls)
     newd         :      0.70s CPU      0.70s WALL (       1 calls)

     Called by c_bands:
     init_us_2    :      0.00s CPU      0.00s WALL (       2 calls)
     cegterg      :    810.22s CPU    812.34s WALL (       8 calls)

     Called by *egterg:
     h_psi        :     65.48s CPU     65.73s WALL (     133 calls)
     s_psi        :      2.45s CPU      2.46s WALL (     133 calls)
     g_psi        :      0.05s CPU      0.05s WALL (     123 calls)
     cdiaghg      :    662.47s CPU    664.23s WALL (     125 calls)

     Called by h_psi:
     add_vuspsi   :      2.40s CPU      2.43s WALL (     133 calls)

     General routines
     calbec       :      3.16s CPU      3.20s WALL (     133 calls)
     fft          :      0.06s CPU      0.07s WALL (      22 calls)
     ffts         :      0.00s CPU      0.00s WALL (       2 calls)
     fftw         :     59.14s CPU     59.35s WALL (   70956 calls)
     interpolate  :      0.01s CPU      0.01s WALL (       2 calls)
     davcio       :      0.00s CPU      0.01s WALL (       4 calls)
 
     Parallel routines
     fft_scatter  :     53.46s CPU     53.64s WALL (   70980 calls)
 
     PWSCF        : 13m42.99s CPU    13m46.85s WALL

 
   This run was terminated on:  11:52:50  29Aug2018            

=------------------------------------------------------------------------------=
   JOB DONE.
=------------------------------------------------------------------------------=
