
     Program PWSCF v.4.3        starts on 29Aug2018 at 11:22: 2 

     This program is part of the open-source Quantum ESPRESSO suite
     for quantum simulation of materials; please cite
         "P. Giannozzi et al., J. Phys.:Condens. Matter 21 395502 (2009);
          URL http://www.quantum-espresso.org", 
     in publications or presentations arising from this work. More details at
     http://www.quantum-espresso.org/wiki/index.php/Citing_Quantum-ESPRESSO

     Parallel version (MPI), running on    64 processors
     R & G space division:  proc/pool =   64

     Current dimensions of program PWSCF are:
     Max number of different atomic species (ntypx) = **
     Max number of k-points (npk) =  40000
     Max angular momentum in pseudopotentials (lmaxx) =  3
     Waiting for input...

     Subspace diagonalization in iterative solution of the eigenvalue problem:
     parallel, distributed-memory algorithm (size of sub-group:  5*  5 procs)

 
   Stick Mesh
   ----------
   nst =  7177,  nstw =   793, nsts =  2877
               n.st   n.stw   n.sts    n.g    n.gw   n.gs
   min         112      12      44    6910     256    1735
   max         114      13      45    6918     263    1759
       7177     793    2877  442525   16599  111903
 


     bravais-lattice index     =           14
     lattice parameter (a_0)   =      17.3432  a.u.
     unit-cell volume          =    5043.2518 (a.u.)^3
     number of atoms/cell      =           72
     number of atomic types    =            3
     number of electrons       =       576.00
     number of Kohn-Sham states=          345
     kinetic-energy cutoff     =      30.0000  Ry
     charge density cutoff     =     300.0000  Ry
     convergence threshold     =      1.0E-08
     mixing beta               =       0.3000
     number of iterations used =            8  local-TF  mixing
     Exchange-correlation      = SLA  PW   PBE  PBE (1434)
     EXX-fraction              =        0.00

     celldm(1)=  17.343151  celldm(2)=   1.000000  celldm(3)=   0.966778
     celldm(4)=   0.000000  celldm(5)=   0.000000  celldm(6)=   0.000000

     crystal axes: (cart. coord. in units of a_0)
               a(1) = (   1.000000   0.000000   0.000000 )  
               a(2) = (   0.000000   1.000000   0.000000 )  
               a(3) = (   0.000000   0.000000   0.966778 )  

     reciprocal axes: (cart. coord. in units 2 pi/a_0)
               b(1) = (  1.000000  0.000000  0.000000 )  
               b(2) = (  0.000000  1.000000  0.000000 )  
               b(3) = (  0.000000  0.000000  1.034364 )  


     PseudoPot. # 1 for O  read from file O.pbe-van_bm.UPF
     MD5 check sum: ca2828d9fb1f294809e918903b7648d1
     Pseudo is Ultrasoft, Zval =  6.0
     Generated by new atomic code, or converted to UPF format
     Using radial grid of  737 points,  4 beta functions with: 
                l(1) =   0
                l(2) =   0
                l(3) =   1
                l(4) =   1
     Q(r) pseudized with  8 coefficients,  rinner =    0.800   0.800   0.800


     PseudoPot. # 2 for Ti read from file Ti.pbe-van-yufengl.UPF
     MD5 check sum: c6a5a6e2bd61e71584bd4e9d5b89d6cc
     Pseudo is Ultrasoft, Zval = 12.0
     Generated by new atomic code, or converted to UPF format
     Using radial grid of  851 points,  6 beta functions with: 
                l(1) =   0
                l(2) =   0
                l(3) =   1
                l(4) =   1
                l(5) =   2
                l(6) =   2
     Q(r) pseudized with  6 coefficients,  rinner =    0.700   0.700   0.700
                                                       0.700   0.700

     PseudoPot. # 3 for ox read from file O.pbe-van-dgp-1s1.UPF
     MD5 check sum: 2083901d62884ac3a15d661bda1575b3
     Pseudo is Ultrasoft, Zval =  7.0
     Generated by new atomic code, or converted to UPF format
     Using radial grid of  737 points,  4 beta functions with: 
                l(1) =   0
                l(2) =   0
                l(3) =   1
                l(4) =   1
     Q(r) pseudized with  8 coefficients,  rinner =    0.800   0.800   0.800


     atomic species   valence    mass     pseudopotential
        O              6.00    15.99900     O ( 1.00)
        Ti            12.00    47.86700     Ti( 1.00)
        OX             7.00    15.99900     ox( 1.00)

     Starting magnetic structure 
     atomic species   magnetization
        O            0.000
        Ti           0.010
        OX           0.000

      4 Sym.Ops. (no inversion)


   Cartesian axes

     site n.     atom                  positions (a_0 units)
         1           Ti  tau(  1) = (   0.0000000   0.0000000   0.0000000  )
         2           Ti  tau(  2) = (   0.0000000   0.0000000   0.3222585  )
         3           Ti  tau(  3) = (   0.0000000   0.0000000   0.6445171  )
         4           Ti  tau(  4) = (   0.0000000   0.4999978   0.0000000  )
         5           Ti  tau(  5) = (   0.0000000   0.4999978   0.3222585  )
         6           Ti  tau(  6) = (   0.0000000   0.4999978   0.6445171  )
         7           Ti  tau(  7) = (   0.4999978   0.0000000   0.0000000  )
         8           Ti  tau(  8) = (   0.4999978   0.0000000   0.3222585  )
         9           Ti  tau(  9) = (   0.4999978   0.0000000   0.6445171  )
        10           Ti  tau( 10) = (   0.4999978   0.4999978   0.0000000  )
        11           Ti  tau( 11) = (   0.4999978   0.4999978   0.3222585  )
        12           Ti  tau( 12) = (   0.4999978   0.4999978   0.6445171  )
        13           Ti  tau( 13) = (   0.2499989   0.2499989   0.1611293  )
        14           Ti  tau( 14) = (   0.2499989   0.2499989   0.4833878  )
        15           Ti  tau( 15) = (   0.2499989   0.2499989   0.8056464  )
        16           Ti  tau( 16) = (   0.2499989   0.7499967   0.1611293  )
        17           Ti  tau( 17) = (   0.2499989   0.7499967   0.4833878  )
        18           Ti  tau( 18) = (   0.2499989   0.7499967   0.8056464  )
        19           Ti  tau( 19) = (   0.7499967   0.2499989   0.1611293  )
        20           Ti  tau( 20) = (   0.7499967   0.2499989   0.4833878  )
        21           Ti  tau( 21) = (   0.7499967   0.2499989   0.8056464  )
        22           Ti  tau( 22) = (   0.7499967   0.7499967   0.1611293  )
        23           Ti  tau( 23) = (   0.7499967   0.7499967   0.4833878  )
        24           Ti  tau( 24) = (   0.7499967   0.7499967   0.8056464  )
        25           OX  tau( 25) = (   0.1511643   0.1511643   0.0000000  )
        26           O   tau( 26) = (   0.1511643   0.1511643   0.3222585  )
        27           O   tau( 27) = (   0.1511643   0.1511643   0.6445171  )
        28           O   tau( 28) = (   0.1511643   0.6511621   0.0000000  )
        29           O   tau( 29) = (   0.1511643   0.6511621   0.3222585  )
        30           O   tau( 30) = (   0.1511643   0.6511621   0.6445171  )
        31           O   tau( 31) = (   0.6511621   0.1511643   0.0000000  )
        32           O   tau( 32) = (   0.6511621   0.1511643   0.3222585  )
        33           O   tau( 33) = (   0.6511621   0.1511643   0.6445171  )
        34           O   tau( 34) = (   0.6511621   0.6511621   0.0000000  )
        35           O   tau( 35) = (   0.6511621   0.6511621   0.3222585  )
        36           O   tau( 36) = (   0.6511621   0.6511621   0.6445171  )
        37           O   tau( 37) = (   0.3488335   0.3488335   0.0000000  )
        38           O   tau( 38) = (   0.3488335   0.3488335   0.3222585  )
        39           O   tau( 39) = (   0.3488335   0.3488335   0.6445171  )
        40           O   tau( 40) = (   0.3488335   0.8488313   0.0000000  )
        41           O   tau( 41) = (   0.3488335   0.8488313   0.3222585  )
        42           O   tau( 42) = (   0.3488335   0.8488313   0.6445171  )
        43           O   tau( 43) = (   0.8488313   0.3488335   0.0000000  )
        44           O   tau( 44) = (   0.8488313   0.3488335   0.3222585  )
        45           O   tau( 45) = (   0.8488313   0.3488335   0.6445171  )
        46           O   tau( 46) = (   0.8488313   0.8488313   0.0000000  )
        47           O   tau( 47) = (   0.8488313   0.8488313   0.3222585  )
        48           O   tau( 48) = (   0.8488313   0.8488313   0.6445171  )
        49           O   tau( 49) = (   0.0988346   0.4011633   0.1611293  )
        50           O   tau( 50) = (   0.0988346   0.4011633   0.4833878  )
        51           O   tau( 51) = (   0.0988346   0.4011633   0.8056464  )
        52           O   tau( 52) = (   0.0988346   0.9011611   0.1611293  )
        53           O   tau( 53) = (   0.0988346   0.9011611   0.4833878  )
        54           O   tau( 54) = (   0.0988346   0.9011611   0.8056464  )
        55           O   tau( 55) = (   0.5988324   0.4011633   0.1611293  )
        56           O   tau( 56) = (   0.5988324   0.4011633   0.4833878  )
        57           O   tau( 57) = (   0.5988324   0.4011633   0.8056464  )
        58           O   tau( 58) = (   0.5988324   0.9011611   0.1611293  )
        59           O   tau( 59) = (   0.5988324   0.9011611   0.4833878  )
        60           O   tau( 60) = (   0.5988324   0.9011611   0.8056464  )
        61           O   tau( 61) = (   0.4011633   0.0988346   0.1611293  )
        62           O   tau( 62) = (   0.4011633   0.0988346   0.4833878  )
        63           O   tau( 63) = (   0.4011633   0.0988346   0.8056464  )
        64           O   tau( 64) = (   0.4011633   0.5988324   0.1611293  )
        65           O   tau( 65) = (   0.4011633   0.5988324   0.4833878  )
        66           O   tau( 66) = (   0.4011633   0.5988324   0.8056464  )
        67           O   tau( 67) = (   0.9011611   0.0988346   0.1611293  )
        68           O   tau( 68) = (   0.9011611   0.0988346   0.4833878  )
        69           O   tau( 69) = (   0.9011611   0.0988346   0.8056464  )
        70           O   tau( 70) = (   0.9011611   0.5988324   0.1611293  )
        71           O   tau( 71) = (   0.9011611   0.5988324   0.4833878  )
        72           O   tau( 72) = (   0.9011611   0.5988324   0.8056464  )

     number of k points=    12  Fermi-Dirac smearing, width (Ry)=  0.0019
                       cart. coord. in units 2pi/a_0
        k(    1) = (   0.0000000   0.0000000   0.0000000), wk =   0.1250000
        k(    2) = (   0.0000000   0.0000000  -0.5171819), wk =   0.1250000
        k(    3) = (   0.0000000  -0.5000000   0.0000000), wk =   0.2500000
        k(    4) = (   0.0000000  -0.5000000  -0.5171819), wk =   0.2500000
        k(    5) = (  -0.5000000  -0.5000000   0.0000000), wk =   0.1250000
        k(    6) = (  -0.5000000  -0.5000000  -0.5171819), wk =   0.1250000
        k(    7) = (   0.0000000   0.0000000   0.0000000), wk =   0.1250000
        k(    8) = (   0.0000000   0.0000000  -0.5171819), wk =   0.1250000
        k(    9) = (   0.0000000  -0.5000000   0.0000000), wk =   0.2500000
        k(   10) = (   0.0000000  -0.5000000  -0.5171819), wk =   0.2500000
        k(   11) = (  -0.5000000  -0.5000000   0.0000000), wk =   0.1250000
        k(   12) = (  -0.5000000  -0.5000000  -0.5171819), wk =   0.1250000

     G cutoff = 2285.6909  ( 442525 G-vectors)     FFT grid: ( 96, 96, 96)
     G cutoff =  914.2764  ( 111903 G-vectors)  smooth grid: ( 64, 64, 60)

     Largest allocated arrays     est. size (Mb)     dimensions
        Kohn-Sham Wavefunctions         1.17 Mb     (    223, 345)
        NL pseudopotentials             2.78 Mb     (    223, 816)
        Each V/rho on FFT grid          0.56 Mb     (  18432,   2)
        Each G-vector array             0.05 Mb     (   6911)
        G-vector shells                 0.03 Mb     (   3325)
     Largest temporary arrays     est. size (Mb)     dimensions
        Auxiliary wavefunctions         4.70 Mb     (    223,1380)
        Each subspace H/S matrix       29.06 Mb     (   1380,1380)
        Each <psi_i|beta_j> matrix      4.30 Mb     (    816, 345)
        Arrays for rho mixing           2.25 Mb     (  18432,   8)

     Initial potential from superposition of free atoms

     starting charge  575.96021, renormalised to  576.00000
     Starting wfc are  432 atomic wfcs

     total cpu time spent up to now is     14.73 secs

     per-process dynamical memory:    90.3 Mb

     Self-consistent Calculation

     iteration #  1     ecut=    30.00 Ry     beta=0.30
     Davidson diagonalization with overlap
     ethr =  1.00E-02,  avg # of iterations =  2.0

     total cpu time spent up to now is     45.91 secs

     total energy              =   -4361.09097003 Ry
     Harris-Foulkes estimate   =   -4367.71194186 Ry
     estimated scf accuracy    <      33.05682823 Ry

     total magnetization       =    -0.00 Bohr mag/cell
     absolute magnetization    =     0.30 Bohr mag/cell

     iteration #  2     ecut=    30.00 Ry     beta=0.30
     Davidson diagonalization with overlap
     ethr =  5.74E-03,  avg # of iterations =  1.0

     total cpu time spent up to now is     73.00 secs

     total energy              =   -4356.83373811 Ry
     Harris-Foulkes estimate   =   -4362.17757159 Ry
     estimated scf accuracy    <      13.60977211 Ry

     total magnetization       =     0.00 Bohr mag/cell
     absolute magnetization    =     0.34 Bohr mag/cell

     iteration #  3     ecut=    30.00 Ry     beta=0.30
     Davidson diagonalization with overlap
     ethr =  2.36E-03,  avg # of iterations =  4.2

     total cpu time spent up to now is    119.82 secs

     total energy              =   -4359.82878465 Ry
     Harris-Foulkes estimate   =   -4360.30136841 Ry
     estimated scf accuracy    <       7.67435298 Ry

     total magnetization       =     0.05 Bohr mag/cell
     absolute magnetization    =     0.37 Bohr mag/cell

     iteration #  4     ecut=    30.00 Ry     beta=0.30
     Davidson diagonalization with overlap
     ethr =  1.33E-03,  avg # of iterations =  1.6

     total cpu time spent up to now is    148.83 secs

     total energy              =   -4359.70224399 Ry
     Harris-Foulkes estimate   =   -4359.99016282 Ry
     estimated scf accuracy    <       2.55068731 Ry

     total magnetization       =     0.05 Bohr mag/cell
     absolute magnetization    =     0.36 Bohr mag/cell

     iteration #  5     ecut=    30.00 Ry     beta=0.30
     Davidson diagonalization with overlap
     ethr =  4.43E-04,  avg # of iterations =  3.6

     total cpu time spent up to now is    185.20 secs

     total energy              =   -4359.62571411 Ry
     Harris-Foulkes estimate   =   -4359.87305816 Ry
     estimated scf accuracy    <       1.12457953 Ry

     total magnetization       =     0.00 Bohr mag/cell
     absolute magnetization    =     0.21 Bohr mag/cell

     iteration #  6     ecut=    30.00 Ry     beta=0.30
     Davidson diagonalization with overlap
     ethr =  1.95E-04,  avg # of iterations =  9.1

     total cpu time spent up to now is    240.69 secs

     total energy              =   -4359.68713052 Ry
     Harris-Foulkes estimate   =   -4359.71883748 Ry
     estimated scf accuracy    <       0.37897809 Ry

     total magnetization       =     0.00 Bohr mag/cell
     absolute magnetization    =     0.07 Bohr mag/cell

     iteration #  7     ecut=    30.00 Ry     beta=0.30
     Davidson diagonalization with overlap
     ethr =  6.58E-05,  avg # of iterations = 13.5

     total cpu time spent up to now is    309.49 secs

     total energy              =   -4359.66958665 Ry
     Harris-Foulkes estimate   =   -4359.69579376 Ry
     estimated scf accuracy    <       0.23733907 Ry

     total magnetization       =     0.00 Bohr mag/cell
     absolute magnetization    =     0.04 Bohr mag/cell

     iteration #  8     ecut=    30.00 Ry     beta=0.30
     Davidson diagonalization with overlap
     ethr =  4.12E-05,  avg # of iterations =  6.8

     total cpu time spent up to now is    356.51 secs

     total energy              =   -4359.66408331 Ry
     Harris-Foulkes estimate   =   -4359.67935492 Ry
     estimated scf accuracy    <       0.15427274 Ry

     total magnetization       =     0.00 Bohr mag/cell
     absolute magnetization    =     0.03 Bohr mag/cell

     iteration #  9     ecut=    30.00 Ry     beta=0.30
     Davidson diagonalization with overlap
     ethr =  2.68E-05,  avg # of iterations =  5.7

     total cpu time spent up to now is    399.26 secs

     total energy              =   -4359.65936904 Ry
     Harris-Foulkes estimate   =   -4359.66810637 Ry
     estimated scf accuracy    <       0.08077817 Ry

     total magnetization       =     0.00 Bohr mag/cell
     absolute magnetization    =     0.02 Bohr mag/cell

     iteration # 10     ecut=    30.00 Ry     beta=0.30
     Davidson diagonalization with overlap
     ethr =  1.40E-05,  avg # of iterations =  6.8

     total cpu time spent up to now is    446.97 secs

     total energy              =   -4359.66242253 Ry
     Harris-Foulkes estimate   =   -4359.66388296 Ry
     estimated scf accuracy    <       0.03653857 Ry

     total magnetization       =     0.00 Bohr mag/cell
     absolute magnetization    =     0.02 Bohr mag/cell

     iteration # 11     ecut=    30.00 Ry     beta=0.30
     Davidson diagonalization with overlap
     ethr =  6.34E-06,  avg # of iterations =  3.2

     total cpu time spent up to now is    480.98 secs

     total energy              =   -4359.66035555 Ry
     Harris-Foulkes estimate   =   -4359.66291719 Ry
     estimated scf accuracy    <       0.02952638 Ry

     total magnetization       =     0.00 Bohr mag/cell
     absolute magnetization    =     0.02 Bohr mag/cell

     iteration # 12     ecut=    30.00 Ry     beta=0.30
     Davidson diagonalization with overlap
     ethr =  5.13E-06,  avg # of iterations =  4.8

     total cpu time spent up to now is    519.92 secs

     total energy              =   -4359.65697847 Ry
     Harris-Foulkes estimate   =   -4359.66082093 Ry
     estimated scf accuracy    <       0.01564140 Ry

     total magnetization       =     0.00 Bohr mag/cell
     absolute magnetization    =     0.01 Bohr mag/cell

     iteration # 13     ecut=    30.00 Ry     beta=0.30
     Davidson diagonalization with overlap
     ethr =  2.72E-06,  avg # of iterations =  7.7

     total cpu time spent up to now is    579.54 secs

     total energy              =   -4359.65839309 Ry
     Harris-Foulkes estimate   =   -4359.65865061 Ry
     estimated scf accuracy    <       0.00110365 Ry

     total magnetization       =    -0.00 Bohr mag/cell
     absolute magnetization    =     0.00 Bohr mag/cell

     iteration # 14     ecut=    30.00 Ry     beta=0.30
     Davidson diagonalization with overlap
     ethr =  1.92E-07,  avg # of iterations =  3.3

     total cpu time spent up to now is    620.86 secs

     total energy              =   -4359.65837235 Ry
     Harris-Foulkes estimate   =   -4359.65859388 Ry
     estimated scf accuracy    <       0.00075412 Ry

     total magnetization       =     0.00 Bohr mag/cell
     absolute magnetization    =     0.00 Bohr mag/cell

     iteration # 15     ecut=    30.00 Ry     beta=0.30
     Davidson diagonalization with overlap
     ethr =  1.31E-07,  avg # of iterations =  3.0

     total cpu time spent up to now is    658.83 secs

     total energy              =   -4359.65847004 Ry
     Harris-Foulkes estimate   =   -4359.65848744 Ry
     estimated scf accuracy    <       0.00013801 Ry

     total magnetization       =    -0.00 Bohr mag/cell
     absolute magnetization    =     0.00 Bohr mag/cell

     iteration # 16     ecut=    30.00 Ry     beta=0.30
     Davidson diagonalization with overlap
     ethr =  2.40E-08,  avg # of iterations =  2.6

     total cpu time spent up to now is    693.33 secs

     total energy              =   -4359.65845682 Ry
     Harris-Foulkes estimate   =   -4359.65848247 Ry
     estimated scf accuracy    <       0.00009095 Ry

     total magnetization       =    -0.00 Bohr mag/cell
     absolute magnetization    =     0.00 Bohr mag/cell

     iteration # 17     ecut=    30.00 Ry     beta=0.30
     Davidson diagonalization with overlap
     ethr =  1.58E-08,  avg # of iterations =  2.7

     total cpu time spent up to now is    727.26 secs

     total energy              =   -4359.65846481 Ry
     Harris-Foulkes estimate   =   -4359.65846650 Ry
     estimated scf accuracy    <       0.00001175 Ry

     total magnetization       =     0.00 Bohr mag/cell
     absolute magnetization    =     0.00 Bohr mag/cell

     iteration # 18     ecut=    30.00 Ry     beta=0.30
     Davidson diagonalization with overlap
     ethr =  2.04E-09,  avg # of iterations =  3.0

     total cpu time spent up to now is    770.71 secs

     total energy              =   -4359.65846541 Ry
     Harris-Foulkes estimate   =   -4359.65846788 Ry
     estimated scf accuracy    <       0.00000987 Ry

     total magnetization       =    -0.00 Bohr mag/cell
     absolute magnetization    =     0.00 Bohr mag/cell

     iteration # 19     ecut=    30.00 Ry     beta=0.30
     Davidson diagonalization with overlap
     ethr =  1.71E-09,  avg # of iterations =  3.0

     total cpu time spent up to now is    805.01 secs

     total energy              =   -4359.65846613 Ry
     Harris-Foulkes estimate   =   -4359.65846632 Ry
     estimated scf accuracy    <       0.00000182 Ry

     total magnetization       =    -0.00 Bohr mag/cell
     absolute magnetization    =     0.00 Bohr mag/cell

     iteration # 20     ecut=    30.00 Ry     beta=0.30
     Davidson diagonalization with overlap
     ethr =  3.15E-10,  avg # of iterations =  3.0

     total cpu time spent up to now is    843.93 secs

     total energy              =   -4359.65846625 Ry
     Harris-Foulkes estimate   =   -4359.65846636 Ry
     estimated scf accuracy    <       0.00000065 Ry

     total magnetization       =    -0.00 Bohr mag/cell
     absolute magnetization    =     0.00 Bohr mag/cell

     iteration # 21     ecut=    30.00 Ry     beta=0.30
     Davidson diagonalization with overlap
     ethr =  1.13E-10,  avg # of iterations =  3.0

     total cpu time spent up to now is    883.55 secs

     total energy              =   -4359.65846628 Ry
     Harris-Foulkes estimate   =   -4359.65846636 Ry
     estimated scf accuracy    <       0.00000035 Ry

     total magnetization       =     0.00 Bohr mag/cell
     absolute magnetization    =     0.00 Bohr mag/cell

     iteration # 22     ecut=    30.00 Ry     beta=0.30
     Davidson diagonalization with overlap
     ethr =  6.05E-11,  avg # of iterations =  3.0

     total cpu time spent up to now is    920.12 secs

     total energy              =   -4359.65846633 Ry
     Harris-Foulkes estimate   =   -4359.65846633 Ry
     estimated scf accuracy    <       0.00000007 Ry

     total magnetization       =    -0.00 Bohr mag/cell
     absolute magnetization    =     0.00 Bohr mag/cell

     iteration # 23     ecut=    30.00 Ry     beta=0.30
     Davidson diagonalization with overlap
     ethr =  1.18E-11,  avg # of iterations =  3.0

     total cpu time spent up to now is    960.50 secs

     total energy              =   -4359.65846634 Ry
     Harris-Foulkes estimate   =   -4359.65846634 Ry
     estimated scf accuracy    <       0.00000003 Ry

     total magnetization       =    -0.00 Bohr mag/cell
     absolute magnetization    =     0.00 Bohr mag/cell

     iteration # 24     ecut=    30.00 Ry     beta=0.30
     Davidson diagonalization with overlap
     ethr =  5.15E-12,  avg # of iterations =  2.3

     total cpu time spent up to now is    991.73 secs

     End of self-consistent calculation

 ------ SPIN UP ------------


          k = 0.0000 0.0000 0.0000 ( 13937 PWs)   bands (ev):

   -48.2111 -48.1893 -48.0646 -47.7429 -47.6987 -47.6793 -47.6547 -47.6541
   -47.6316 -47.6187 -47.6184 -47.6153 -47.6148 -47.6023 -47.6015 -47.6003
   -47.5957 -47.5948 -47.5943 -47.5828 -47.5759 -47.5637 -47.5634 -47.5501
   -24.7793 -24.5868 -24.4861 -24.4238 -24.4058 -24.3984 -24.3849 -24.3667
   -24.2733 -24.1616 -24.1074 -24.1070 -24.0945 -24.0825 -24.0805 -24.0781
   -24.0659 -24.0625 -24.0598 -24.0590 -24.0559 -24.0431 -24.0413 -24.0089
   -23.9808 -23.9709 -23.9657 -23.9361 -23.9333 -23.9271 -23.9213 -23.9159
   -23.9150 -23.9057 -23.8870 -23.8859 -23.8780 -23.8757 -23.8684 -23.8609
   -23.8528 -23.8526 -23.8489 -23.8487 -23.8441 -23.8421 -23.8350 -23.8335
   -23.8297 -23.8264 -23.8194 -23.8173 -23.8155 -23.8102 -23.8009 -23.7984
   -23.7940 -23.7883 -23.7853 -23.7846 -23.7815 -23.7803 -23.7695 -23.7662
   -23.7654 -23.7611 -23.7600 -23.7569 -23.7309 -23.7187 -23.7152 -23.7069
   -12.9258  -9.0337  -8.4593  -8.3971  -8.3136  -8.2907  -8.2799  -8.2532
    -8.2204  -8.1707  -8.0292  -8.0046  -7.9862  -7.9576  -7.9355  -7.9239
    -7.8923  -7.8882  -7.8277  -7.7729  -7.7584  -7.7336  -7.7032  -7.6947
    -7.6270  -7.6218  -7.5855  -7.5844  -7.5572  -7.5471  -7.5348  -7.5212
    -7.4884  -7.4555  -7.4451  -7.4345  -7.4133  -7.4124  -7.3997  -7.3942
    -7.3917  -7.3787  -7.3660  -7.3561  -7.2752  -7.2696  -7.1540  -7.1368
     0.8711   1.3511   2.0928   3.4880   3.6472   3.7664   3.9008   4.2803
     4.3325   4.3522   4.3597   4.4110   4.4526   4.4720   4.4722   4.5076
     4.5257   4.5473   4.5780   4.5913   4.6089   4.6242   4.6622   4.6786
     4.6811   4.6855   4.6870   4.7109   4.7170   4.7213   4.7271   4.8615
     4.9181   4.9357   4.9402   4.9644   4.9928   5.0057   5.0130   5.2038
     5.2066   5.2068   5.2109   5.3205   5.3406   5.3783   5.4210   5.4708
     5.4731   5.4863   5.5145   5.5504   5.5572   5.5846   5.6115   5.6642
     5.7152   5.7195   5.7204   5.7763   5.8003   5.8022   5.8170   5.8504
     5.8997   5.9188   5.9490   5.9570   5.9670   5.9929   6.0805   6.0807
     6.1257   6.1261   6.1513   6.1869   6.3250   6.3745   6.4103   6.4225
     6.5032   6.5110   6.5176   6.5190   6.5241   6.6507   6.6531   6.7626
     6.7627   6.8719   6.9073   6.9120   6.9435   7.0216   7.1112   7.1242
     7.1438   7.1780   7.2384   7.2564   7.3665   7.3917   7.3935   7.3959
     7.3999   7.4213   7.4469   7.5145   7.5395   7.5579   7.6179   7.6234
     7.6425   7.6505   7.6723   7.6843   7.7038   7.7116   7.8977   7.9047
     7.9226   8.0536   8.1251   8.1275   8.1399   8.2097   8.2166   8.2286
     8.2597   8.2628   8.2749   8.2851   8.3160   8.3209   8.3265   8.3284
     8.4445   8.4969   8.5226   8.5305   8.5530   8.7616   8.7869   9.2702
    10.8230  11.0624  11.1117  11.2421  11.2760  11.3045  11.3903  11.3958
    11.4179  11.5259  11.5306  11.5415  11.5574  11.5881  11.6011  11.6213
    11.6326  11.6424  11.6750  11.6987  11.7450  11.7760  11.7865  11.7938
    11.8907  11.9242  12.0475  12.0974  12.1451  12.1582  12.1635  12.1834
    12.2035  12.2038  12.2190  12.2513  12.2615  12.2713  12.2881  12.3311
    12.3392  12.3446  12.3461  12.4404  12.4579  12.4720  12.4821  12.5080
    12.5085  12.5106  12.5310  12.5538  12.5856  12.6286  12.6412  12.6466
    12.7208

          k = 0.0000 0.0000-0.5172 ( 13998 PWs)   bands (ev):

   -48.2107 -48.1897 -48.0646 -47.7429 -47.6992 -47.6788 -47.6524 -47.6520
   -47.6287 -47.6222 -47.6215 -47.6148 -47.6141 -47.6042 -47.6008 -47.5990
   -47.5979 -47.5975 -47.5956 -47.5829 -47.5784 -47.5615 -47.5614 -47.5475
   -24.8058 -24.5551 -24.4923 -24.4517 -24.4055 -24.3836 -24.3789 -24.3701
   -24.2728 -24.2022 -24.2021 -24.1761 -24.1748 -24.1619 -24.1583 -24.0765
   -24.0760 -24.0087 -23.9810 -23.9741 -23.9479 -23.9450 -23.9369 -23.9357
   -23.9254 -23.9230 -23.9221 -23.9146 -23.9114 -23.8998 -23.8976 -23.8907
   -23.8874 -23.8869 -23.8827 -23.8798 -23.8749 -23.8742 -23.8687 -23.8674
   -23.8648 -23.8630 -23.8565 -23.8450 -23.8425 -23.8379 -23.8343 -23.8290
   -23.8248 -23.8233 -23.8233 -23.8226 -23.8209 -23.8168 -23.8134 -23.8115
   -23.8094 -23.8082 -23.7994 -23.7991 -23.7958 -23.7936 -23.7929 -23.7903
   -23.7885 -23.7869 -23.7789 -23.7733 -23.7712 -23.7675 -23.7623 -23.7564
   -12.9250  -8.7803  -8.7708  -8.3117  -8.2302  -8.2187  -8.1815  -8.1520
    -8.1238  -8.1066  -8.1057  -8.0971  -8.0845  -8.0781  -8.0656  -8.0139
    -8.0080  -7.9315  -7.9310  -7.7676  -7.7630  -7.7335  -7.7277  -7.6799
    -7.6682  -7.6232  -7.6215  -7.5803  -7.5650  -7.5371  -7.5177  -7.4948
    -7.4890  -7.4625  -7.4612  -7.4393  -7.4014  -7.3962  -7.3658  -7.3576
    -7.2973  -7.2893  -7.2657  -7.2653  -7.2425  -7.2371  -7.2302  -7.1914
     0.8752   1.3377   2.0908   3.8370   3.8431   3.9129   3.9858   3.9997
     4.0856   4.1559   4.1728   4.1900   4.2043   4.2216   4.2353   4.4898
     4.4932   4.5966   4.6028   4.6046   4.6150   4.6323   4.6583   4.6740
     4.6918   4.6964   4.7040   4.7121   4.7220   4.7230   4.7851   4.7934
     4.8529   4.9432   4.9860   5.0493   5.0706   5.0765   5.0907   5.0924
     5.1494   5.1598   5.1710   5.1718   5.1881   5.2043   5.2233   5.2266
     5.2639   5.3325   5.4617   5.5176   5.5233   5.6656   5.6771   5.7278
     5.7282   5.8608   5.8762   5.8831   5.8840   5.8981   5.9271   5.9334
     5.9641   5.9652   6.1201   6.1265   6.1296   6.3894   6.4181   6.4267
     6.4312   6.4600   6.5048   6.5107   6.5124   6.5223   6.5241   6.5320
     6.5375   6.6720   6.7755   6.7853   6.8570   6.8594   6.8927   6.9075
     6.9557   6.9799   6.9803   7.0278   7.0558   7.0621   7.0901   7.0924
     7.1069   7.1280   7.1350   7.1459   7.1474   7.1644   7.1737   7.1883
     7.2022   7.2046   7.2147   7.2167   7.2361   7.2507   7.2594   7.2608
     7.2634   7.2702   7.5180   7.5626   7.6293   7.6797   7.7737   7.7948
     7.8078   7.8152   7.8515   7.9053   8.0625   8.1331   8.1719   8.2113
     8.2141   8.2463   8.2681   8.2774   8.3931   8.5178   8.5307   8.5488
     8.5695   8.5777   8.5802   8.6057   8.6091   8.6235   9.0480   9.1287
    11.0103  11.0309  11.1310  11.1394  11.1879  11.3369  11.3760  11.4624
    11.4953  11.5430  11.5728  11.5837  11.5845  11.6022  11.6434  11.6726
    11.6987  11.8068  11.8208  11.8357  11.8967  11.9004  11.9107  11.9385
    11.9392  11.9407  11.9576  11.9639  12.0127  12.0548  12.0574  12.0630
    12.0636  12.1771  12.2284  12.2381  12.2684  12.2721  12.2742  12.2942
    12.3199  12.3438  12.3539  12.3558  12.3701  12.4059  12.4788  12.4811
    12.5148  12.5217  12.5226  12.5449  12.5660  12.6559  12.7375  12.7824
    12.8271

          k = 0.0000-0.5000 0.0000 ( 14026 PWs)   bands (ev):

   -48.2111 -48.1893 -48.0646 -47.7429 -47.6987 -47.6793 -47.6545 -47.6543
   -47.6316 -47.6188 -47.6183 -47.6152 -47.6150 -47.6020 -47.6019 -47.6003
   -47.5957 -47.5946 -47.5944 -47.5828 -47.5759 -47.5636 -47.5635 -47.5501
   -24.7793 -24.5868 -24.4860 -24.4237 -24.4060 -24.3984 -24.3848 -24.3667
   -24.2732 -24.1614 -24.1130 -24.1013 -24.0896 -24.0882 -24.0785 -24.0730
   -24.0728 -24.0646 -24.0594 -24.0533 -24.0519 -24.0516 -24.0444 -24.0052
   -23.9720 -23.9658 -23.9550 -23.9482 -23.9410 -23.9395 -23.9363 -23.9149
   -23.9118 -23.9099 -23.8980 -23.8873 -23.8634 -23.8599 -23.8591 -23.8530
   -23.8512 -23.8506 -23.8497 -23.8482 -23.8458 -23.8417 -23.8382 -23.8352
   -23.8258 -23.8235 -23.8227 -23.8200 -23.8183 -23.8168 -23.8033 -23.7905
   -23.7900 -23.7895 -23.7846 -23.7844 -23.7823 -23.7737 -23.7730 -23.7725
   -23.7679 -23.7653 -23.7592 -23.7577 -23.7312 -23.7176 -23.7156 -23.7071
   -12.9258  -8.8404  -8.8111  -8.4198  -8.3658  -8.3225  -8.2876  -8.1922
    -8.1451  -8.1092  -8.0430  -7.9788  -7.9445  -7.9181  -7.9033  -7.8875
    -7.8730  -7.8568  -7.8346  -7.8164  -7.7773  -7.7702  -7.7283  -7.7201
    -7.6659  -7.5796  -7.5734  -7.5645  -7.5502  -7.5356  -7.5076  -7.4908
    -7.4797  -7.4638  -7.4418  -7.4415  -7.4337  -7.3958  -7.3906  -7.3903
    -7.3681  -7.3621  -7.3473  -7.3308  -7.2918  -7.2904  -7.2430  -7.1967
     0.8753   1.3508   2.0945   3.8300   3.8527   3.9221   3.9948   4.0146
     4.0532   4.1358   4.1614   4.4607   4.4766   4.4908   4.4987   4.5152
     4.5264   4.5438   4.5822   4.6018   4.6333   4.6603   4.6958   4.7167
     4.7322   4.7334   4.7549   4.7611   4.7953   4.8037   4.8141   4.8180
     4.8410   4.8462   4.8540   4.8555   4.8635   4.8669   4.9144   5.0010
     5.0930   5.1186   5.1263   5.1721   5.3567   5.4013   5.4283   5.4477
     5.4585   5.5112   5.5303   5.5427   5.5542   5.5859   5.6197   5.6541
     5.6686   5.7048   5.7465   5.7511   5.7655   5.7757   5.7808   5.7935
     5.8025   5.8029   5.8127   5.8703   5.9171   5.9654   6.0540   6.0942
     6.1895   6.2055   6.2256   6.3258   6.3721   6.4794   6.4866   6.5460
     6.6078   6.8090   6.8361   6.8426   6.8582   6.8793   6.8954   6.9316
     6.9498   6.9691   6.9873   6.9915   7.0168   7.0358   7.0482   7.0593
     7.1534   7.1574   7.2035   7.2081   7.2836   7.3354   7.3941   7.3948
     7.3998   7.4088   7.4341   7.4518   7.4788   7.5257   7.5712   7.5926
     7.6235   7.6921   7.6950   7.7276   7.7344   7.7710   7.8014   7.8021
     7.8077   7.8157   7.9525   8.0822   8.0967   8.1558   8.1750   8.1927
     8.2029   8.2043   8.2617   8.2711   8.3095   8.3200   8.3428   8.3489
     8.3659   8.4241   8.4294   8.4567   8.4857   8.4859   8.9768   9.0802
    10.9714  11.2134  11.2218  11.3102  11.3448  11.3449  11.4282  11.4438
    11.4802  11.4932  11.4991  11.5177  11.5971  11.6075  11.6359  11.6630
    11.6957  11.7004  11.7193  11.7542  11.7562  11.7809  11.8549  11.9205
    11.9929  12.0056  12.0246  12.0315  12.0433  12.0733  12.0765  12.0798
    12.0940  12.1233  12.1319  12.1539  12.1570  12.2308  12.2640  12.2739
    12.3065  12.3219  12.3577  12.3706  12.3761  12.3841  12.4098  12.4406
    12.4576  12.4851  12.5057  12.6706  12.7200  12.7363  12.7645  12.7924
    12.8188

          k = 0.0000-0.5000-0.5172 ( 13952 PWs)   bands (ev):

   -48.2107 -48.1897 -48.0646 -47.7429 -47.6992 -47.6788 -47.6522 -47.6521
   -47.6288 -47.6220 -47.6218 -47.6147 -47.6143 -47.6043 -47.6005 -47.5992
   -47.5979 -47.5974 -47.5956 -47.5829 -47.5784 -47.5615 -47.5614 -47.5475
   -24.8058 -24.5551 -24.4923 -24.4517 -24.4056 -24.3836 -24.3789 -24.3699
   -24.2727 -24.2077 -24.1968 -24.1761 -24.1688 -24.1682 -24.1582 -24.0768
   -24.0763 -24.0071 -23.9781 -23.9732 -23.9491 -23.9416 -23.9386 -23.9305
   -23.9290 -23.9222 -23.9170 -23.9121 -23.9103 -23.9083 -23.9077 -23.9061
   -23.8990 -23.8963 -23.8848 -23.8788 -23.8739 -23.8693 -23.8618 -23.8612
   -23.8593 -23.8546 -23.8450 -23.8448 -23.8388 -23.8385 -23.8349 -23.8290
   -23.8287 -23.8253 -23.8215 -23.8208 -23.8202 -23.8165 -23.8127 -23.8122
   -23.8096 -23.7994 -23.7985 -23.7969 -23.7964 -23.7953 -23.7949 -23.7933
   -23.7885 -23.7860 -23.7791 -23.7777 -23.7701 -23.7694 -23.7684 -23.7565
   -12.9250  -8.6342  -8.6075  -8.5856  -8.5400  -8.2606  -8.1962  -8.1827
    -8.1569  -8.1443  -8.1126  -8.1089  -8.0725  -7.9875  -7.9628  -7.9367
    -7.8774  -7.8600  -7.8411  -7.8344  -7.8340  -7.7798  -7.7310  -7.7094
    -7.6810  -7.6010  -7.5804  -7.5721  -7.4822  -7.4726  -7.4641  -7.4489
    -7.4324  -7.4213  -7.4102  -7.4070  -7.3914  -7.3729  -7.3716  -7.3700
    -7.3211  -7.3196  -7.3161  -7.3119  -7.2948  -7.2944  -7.2876  -7.2845
     0.8792   1.3380   2.0929   4.0896   4.1102   4.1154   4.1931   4.1936
     4.2245   4.2434   4.2600   4.2738   4.2771   4.2870   4.3013   4.3227
     4.3299   4.3529   4.3672   4.4270   4.4344   4.4538   4.4716   4.4853
     4.4865   4.5111   4.5620   4.7577   4.7588   4.8019   4.8325   4.8467
     4.8700   4.9342   4.9440   4.9448   4.9500   4.9532   4.9748   4.9863
     5.0580   5.0747   5.0857   5.1048   5.1112   5.1330   5.1775   5.1855
     5.2199   5.3200   5.4631   5.5414   5.5621   5.5809   5.7082   5.7154
     5.7429   5.8424   5.8700   5.9429   5.9737   6.0256   6.1124   6.2765
     6.3215   6.3254   6.3490   6.3559   6.3595   6.3613   6.3693   6.3874
     6.3922   6.4474   6.4908   6.5315   6.5538   6.5861   6.5928   6.5971
     6.6068   6.6323   6.6560   6.6608   6.7297   6.7683   6.7831   6.8815
     6.9074   6.9402   6.9468   6.9525   6.9842   7.0206   7.0209   7.0299
     7.0569   7.0628   7.0759   7.0983   7.1114   7.2402   7.2565   7.2615
     7.2890   7.3101   7.3200   7.3289   7.3440   7.3684   7.3974   7.4064
     7.5096   7.5643   7.6243   7.6481   7.6756   7.7208   7.7416   7.7445
     7.8067   7.9749   7.9888   8.0226   8.0390   8.0763   8.1276   8.1477
     8.1496   8.1565   8.1740   8.1867   8.1952   8.2120   8.2272   8.2459
     8.3123   8.3431   8.4059   8.4279   8.7532   8.8927   8.9219   8.9550
    11.2280  11.2369  11.2488  11.3691  11.4002  11.4545  11.4703  11.4940
    11.5534  11.5774  11.6190  11.6521  11.6719  11.6889  11.7023  11.7516
    11.7770  11.7902  11.8091  11.8145  11.8427  11.8908  11.8976  11.9088
    11.9223  11.9411  11.9512  11.9576  11.9600  11.9883  12.0037  12.0375
    12.0721  12.0746  12.0938  12.0979  12.1054  12.1160  12.1183  12.1218
    12.1390  12.2914  12.3357  12.3462  12.3678  12.3809  12.4753  12.4792
    12.5103  12.5178  12.5208  12.5215  12.5389  12.6755  12.7198  12.7759
    12.8109

          k =-0.5000-0.5000 0.0000 ( 14028 PWs)   bands (ev):

   -48.2111 -48.1893 -48.0646 -47.7429 -47.6987 -47.6793 -47.6545 -47.6542
   -47.6316 -47.6189 -47.6181 -47.6154 -47.6148 -47.6022 -47.6016 -47.6003
   -47.5957 -47.5949 -47.5941 -47.5828 -47.5759 -47.5635 -47.5635 -47.5501
   -24.7793 -24.5868 -24.4861 -24.4237 -24.4058 -24.3985 -24.3849 -24.3667
   -24.2733 -24.1615 -24.1086 -24.1059 -24.0937 -24.0831 -24.0798 -24.0782
   -24.0658 -24.0631 -24.0603 -24.0574 -24.0551 -24.0455 -24.0422 -24.0085
   -23.9784 -23.9729 -23.9655 -23.9365 -23.9333 -23.9275 -23.9212 -23.9157
   -23.9148 -23.9069 -23.8862 -23.8860 -23.8779 -23.8757 -23.8684 -23.8605
   -23.8530 -23.8527 -23.8484 -23.8480 -23.8446 -23.8421 -23.8346 -23.8336
   -23.8312 -23.8257 -23.8190 -23.8172 -23.8153 -23.8099 -23.8013 -23.7987
   -23.7938 -23.7882 -23.7849 -23.7845 -23.7819 -23.7806 -23.7688 -23.7672
   -23.7651 -23.7616 -23.7587 -23.7582 -23.7315 -23.7169 -23.7158 -23.7074
   -12.9258  -8.7332  -8.7097  -8.6636  -8.6499  -8.1621  -8.1304  -8.1055
    -8.0955  -8.0593  -8.0086  -8.0061  -8.0028  -7.9754  -7.9668  -7.9437
    -7.8895  -7.8161  -7.7836  -7.7820  -7.7613  -7.6995  -7.6925  -7.6764
    -7.6516  -7.6370  -7.5948  -7.5810  -7.5734  -7.5729  -7.5574  -7.5375
    -7.5097  -7.4882  -7.4766  -7.4550  -7.4524  -7.3926  -7.3889  -7.3885
    -7.3863  -7.3731  -7.3526  -7.3393  -7.2477  -7.2281  -7.2120  -7.1699
     0.8722   1.3510   2.0984   3.6310   3.6423   3.7217   3.7859   4.3905
     4.4174   4.4281   4.4833   4.5086   4.5162   4.5569   4.5613   4.5932
     4.6020   4.6065   4.6162   4.6294   4.6324   4.6433   4.6533   4.6690
     4.6762   4.6920   4.6996   4.7146   4.7222   4.7370   4.7380   4.7514
     4.7796   4.8338   4.8569   4.9983   5.0266   5.0544   5.0760   5.0839
     5.0902   5.0951   5.1298   5.1453   5.1597   5.2544   5.2819   5.3548
     5.3618   5.3812   5.3944   5.3979   5.4127   5.4189   5.4406   5.4482
     5.4784   5.5138   5.5419   5.5554   5.5858   5.6930   5.9143   6.0413
     6.0598   6.0940   6.1487   6.1631   6.1648   6.1678   6.1979   6.2240
     6.2272   6.3743   6.3764   6.3792   6.4552   6.4646   6.5162   6.5225
     6.5267   6.5951   6.6316   6.7670   6.7731   6.7835   6.7991   6.8002
     6.8101   6.8155   6.8360   6.8530   6.9340   7.0015   7.0484   7.0834
     7.1047   7.1319   7.1328   7.1522   7.1694   7.2391   7.3671   7.3703
     7.4373   7.4553   7.4899   7.5303   7.5458   7.5551   7.6320   7.6460
     7.6730   7.6795   7.6955   7.7010   7.7931   7.8496   7.9168   7.9253
     7.9581   7.9630   7.9641   7.9803   8.0058   8.0262   8.0617   8.0918
     8.1207   8.1298   8.1323   8.1599   8.3082   8.4441   8.5085   8.5390
     8.5446   8.5493   8.5918   8.6031   8.7565   8.8133   8.8275   8.8998
    10.8312  11.0944  11.1357  11.1395  11.1576  11.1912  11.2713  11.2915
    11.3130  11.3781  11.3895  11.4086  11.5502  11.5732  11.6371  11.6727
    11.7284  11.7495  11.7749  11.7835  11.7862  11.8291  11.9863  12.0355
    12.0579  12.1176  12.1224  12.1269  12.1438  12.1756  12.1963  12.2228
    12.2631  12.2648  12.2710  12.2876  12.3029  12.3074  12.3124  12.3327
    12.3425  12.3427  12.3570  12.4034  12.4080  12.4265  12.4370  12.4412
    12.4466  12.4548  12.4644  12.4670  12.5128  12.5324  12.5786  12.6153
    12.6196

          k =-0.5000-0.5000-0.5172 ( 13984 PWs)   bands (ev):

   -48.2107 -48.1897 -48.0646 -47.7429 -47.6992 -47.6788 -47.6523 -47.6521
   -47.6288 -47.6221 -47.6216 -47.6146 -47.6143 -47.6044 -47.6003 -47.5993
   -47.5979 -47.5974 -47.5957 -47.5829 -47.5784 -47.5615 -47.5615 -47.5475
   -24.8058 -24.5551 -24.4923 -24.4517 -24.4055 -24.3836 -24.3789 -24.3700
   -24.2727 -24.2035 -24.2009 -24.1761 -24.1741 -24.1627 -24.1583 -24.0766
   -24.0760 -24.0085 -23.9789 -23.9761 -23.9475 -23.9450 -23.9367 -23.9337
   -23.9269 -23.9235 -23.9224 -23.9153 -23.9104 -23.9009 -23.8928 -23.8921
   -23.8890 -23.8869 -23.8835 -23.8812 -23.8783 -23.8754 -23.8682 -23.8673
   -23.8664 -23.8622 -23.8533 -23.8456 -23.8401 -23.8379 -23.8338 -23.8294
   -23.8248 -23.8231 -23.8228 -23.8225 -23.8206 -23.8168 -23.8149 -23.8118
   -23.8092 -23.8074 -23.7996 -23.7987 -23.7952 -23.7934 -23.7933 -23.7901
   -23.7886 -23.7873 -23.7792 -23.7727 -23.7711 -23.7684 -23.7624 -23.7564
   -12.9250  -8.5578  -8.5340  -8.4810  -8.4520  -8.4460  -8.4317  -8.4058
    -8.3978  -8.0542  -8.0395  -8.0346  -7.9365  -7.8702  -7.8611  -7.8596
    -7.8545  -7.8169  -7.7900  -7.7672  -7.7499  -7.7274  -7.7112  -7.6958
    -7.6768  -7.6424  -7.6250  -7.6155  -7.5937  -7.5740  -7.5702  -7.5113
    -7.5113  -7.4992  -7.4946  -7.4693  -7.3978  -7.3760  -7.3473  -7.3353
    -7.3252  -7.3092  -7.3005  -7.2781  -7.2748  -7.2378  -7.2360  -7.1887
     0.8763   1.3379   2.0956   3.9010   3.9145   3.9168   3.9835   3.9996
     4.0180   4.0441   4.1708   4.2013   4.2112   4.2168   4.2542   4.6678
     4.6929   4.7041   4.7231   4.7283   4.7325   4.7519   4.7526   4.7534
     4.7782   4.7799   4.7883   4.8022   4.8068   4.8103   4.8223   4.8313
     4.8446   4.8535   4.8978   4.9419   4.9527   4.9944   5.0096   5.0106
     5.0270   5.0752   5.0880   5.0909   5.1049   5.1053   5.1109   5.1392
     5.1626   5.1683   5.1837   5.1852   5.2265   5.4498   5.6955   5.6977
     5.7078   5.7443   5.7805   5.7899   5.8325   5.8921   5.9197   6.1264
     6.1468   6.1835   6.1958   6.2119   6.2522   6.3220   6.3235   6.4094
     6.4460   6.4479   6.5140   6.5654   6.5976   6.6113   6.6202   6.6255
     6.6520   6.6622   6.6695   6.6844   6.6898   6.7013   6.7061   6.7118
     6.7308   6.8773   6.9780   7.0016   7.0060   7.0282   7.0319   7.0621
     7.0918   7.1100   7.1550   7.1605   7.1629   7.1907   7.1934   7.2086
     7.2225   7.3182   7.3411   7.3999   7.4801   7.5953   7.7047   7.7148
     7.7699   7.7821   7.8412   7.8717   7.8720   7.8991   7.9538   7.9766
     8.0013   8.0015   8.0128   8.0143   8.0350   8.0383   8.0426   8.0472
     8.0498   8.0721   8.0733   8.0769   8.0783   8.0983   8.1002   8.1254
     8.3312   8.5475   8.5717   8.5947   8.6258   8.6344   8.6470   8.6717
    11.1355  11.2038  11.2229  11.2818  11.3524  11.3799  11.4375  11.4462
    11.4532  11.5191  11.5362  11.5730  11.5752  11.6050  11.6225  11.6325
    11.6391  11.6602  11.6882  11.7055  11.8052  11.8444  11.9008  11.9664
    11.9814  11.9886  12.0013  12.0146  12.0524  12.0565  12.0818  12.1015
    12.1114  12.1717  12.2577  12.3117  12.3162  12.3376  12.3734  12.3950
    12.4296  12.4402  12.4415  12.4420  12.4566  12.4585  12.4638  12.4722
    12.4792  12.4810  12.4847  12.4896  12.5045  12.5066  12.5154  12.5194
    12.5630

 ------ SPIN DOWN ----------


          k = 0.0000 0.0000 0.0000 ( 13937 PWs)   bands (ev):

   -48.2111 -48.1893 -48.0646 -47.7429 -47.6987 -47.6793 -47.6547 -47.6541
   -47.6316 -47.6187 -47.6184 -47.6153 -47.6148 -47.6023 -47.6015 -47.6003
   -47.5957 -47.5948 -47.5943 -47.5828 -47.5759 -47.5637 -47.5634 -47.5501
   -24.7793 -24.5868 -24.4861 -24.4238 -24.4058 -24.3984 -24.3849 -24.3667
   -24.2733 -24.1616 -24.1074 -24.1070 -24.0945 -24.0825 -24.0805 -24.0781
   -24.0659 -24.0625 -24.0598 -24.0590 -24.0559 -24.0431 -24.0413 -24.0089
   -23.9808 -23.9709 -23.9657 -23.9361 -23.9333 -23.9271 -23.9213 -23.9159
   -23.9150 -23.9057 -23.8870 -23.8859 -23.8780 -23.8757 -23.8684 -23.8609
   -23.8528 -23.8526 -23.8489 -23.8487 -23.8441 -23.8421 -23.8350 -23.8335
   -23.8297 -23.8264 -23.8194 -23.8173 -23.8155 -23.8102 -23.8009 -23.7984
   -23.7940 -23.7883 -23.7853 -23.7846 -23.7815 -23.7803 -23.7696 -23.7662
   -23.7654 -23.7611 -23.7600 -23.7569 -23.7309 -23.7187 -23.7152 -23.7069
   -12.9258  -9.0337  -8.4593  -8.3971  -8.3136  -8.2907  -8.2799  -8.2532
    -8.2204  -8.1707  -8.0292  -8.0046  -7.9862  -7.9576  -7.9355  -7.9239
    -7.8923  -7.8882  -7.8277  -7.7729  -7.7584  -7.7336  -7.7032  -7.6947
    -7.6270  -7.6218  -7.5855  -7.5844  -7.5572  -7.5471  -7.5348  -7.5212
    -7.4884  -7.4555  -7.4451  -7.4345  -7.4133  -7.4124  -7.3997  -7.3942
    -7.3917  -7.3787  -7.3660  -7.3561  -7.2752  -7.2696  -7.1540  -7.1368
     0.8711   1.3511   2.0928   3.4880   3.6472   3.7664   3.9008   4.2803
     4.3325   4.3522   4.3597   4.4110   4.4526   4.4720   4.4722   4.5076
     4.5257   4.5473   4.5780   4.5913   4.6089   4.6242   4.6622   4.6786
     4.6811   4.6855   4.6870   4.7109   4.7170   4.7213   4.7271   4.8615
     4.9181   4.9357   4.9402   4.9644   4.9928   5.0057   5.0130   5.2038
     5.2066   5.2068   5.2109   5.3205   5.3406   5.3783   5.4210   5.4708
     5.4731   5.4863   5.5145   5.5504   5.5572   5.5846   5.6115   5.6642
     5.7152   5.7195   5.7204   5.7763   5.8003   5.8022   5.8170   5.8504
     5.8997   5.9188   5.9490   5.9570   5.9670   5.9929   6.0805   6.0807
     6.1257   6.1261   6.1513   6.1869   6.3250   6.3745   6.4103   6.4225
     6.5032   6.5110   6.5176   6.5190   6.5241   6.6507   6.6531   6.7626
     6.7627   6.8719   6.9073   6.9120   6.9435   7.0216   7.1112   7.1242
     7.1438   7.1780   7.2384   7.2564   7.3665   7.3917   7.3935   7.3959
     7.3999   7.4213   7.4469   7.5145   7.5395   7.5579   7.6179   7.6234
     7.6425   7.6505   7.6723   7.6843   7.7038   7.7116   7.8977   7.9047
     7.9226   8.0536   8.1251   8.1275   8.1399   8.2097   8.2166   8.2286
     8.2597   8.2628   8.2749   8.2851   8.3160   8.3209   8.3265   8.3284
     8.4445   8.4969   8.5226   8.5305   8.5530   8.7616   8.7869   9.2702
    10.8230  11.0624  11.1117  11.2421  11.2760  11.3045  11.3903  11.3958
    11.4179  11.5259  11.5306  11.5415  11.5574  11.5881  11.6011  11.6213
    11.6326  11.6424  11.6750  11.6987  11.7450  11.7760  11.7865  11.7938
    11.8907  11.9242  12.0474  12.0974  12.1451  12.1582  12.1635  12.1834
    12.2035  12.2038  12.2190  12.2513  12.2615  12.2713  12.2881  12.3311
    12.3392  12.3446  12.3461  12.4404  12.4579  12.4720  12.4821  12.5080
    12.5085  12.5106  12.5310  12.5538  12.5856  12.6286  12.6412  12.6466
    12.7208

          k = 0.0000 0.0000-0.5172 ( 13998 PWs)   bands (ev):

   -48.2107 -48.1897 -48.0646 -47.7429 -47.6992 -47.6788 -47.6524 -47.6520
   -47.6287 -47.6222 -47.6215 -47.6148 -47.6141 -47.6042 -47.6008 -47.5990
   -47.5979 -47.5975 -47.5956 -47.5829 -47.5784 -47.5615 -47.5614 -47.5475
   -24.8058 -24.5551 -24.4923 -24.4517 -24.4055 -24.3836 -24.3789 -24.3701
   -24.2728 -24.2022 -24.2021 -24.1761 -24.1748 -24.1619 -24.1583 -24.0765
   -24.0760 -24.0087 -23.9810 -23.9741 -23.9479 -23.9450 -23.9369 -23.9357
   -23.9254 -23.9230 -23.9221 -23.9146 -23.9114 -23.8998 -23.8976 -23.8907
   -23.8874 -23.8869 -23.8827 -23.8798 -23.8749 -23.8742 -23.8687 -23.8674
   -23.8648 -23.8630 -23.8565 -23.8450 -23.8425 -23.8379 -23.8343 -23.8290
   -23.8248 -23.8233 -23.8233 -23.8226 -23.8209 -23.8168 -23.8134 -23.8115
   -23.8094 -23.8082 -23.7994 -23.7991 -23.7958 -23.7936 -23.7929 -23.7903
   -23.7885 -23.7869 -23.7789 -23.7733 -23.7712 -23.7675 -23.7623 -23.7564
   -12.9250  -8.7803  -8.7708  -8.3117  -8.2302  -8.2187  -8.1815  -8.1520
    -8.1238  -8.1066  -8.1057  -8.0971  -8.0845  -8.0781  -8.0656  -8.0139
    -8.0080  -7.9315  -7.9310  -7.7676  -7.7630  -7.7335  -7.7277  -7.6799
    -7.6682  -7.6232  -7.6215  -7.5803  -7.5650  -7.5371  -7.5177  -7.4948
    -7.4890  -7.4625  -7.4612  -7.4393  -7.4014  -7.3962  -7.3658  -7.3576
    -7.2973  -7.2893  -7.2657  -7.2653  -7.2425  -7.2371  -7.2302  -7.1914
     0.8752   1.3377   2.0908   3.8370   3.8431   3.9129   3.9858   3.9997
     4.0856   4.1559   4.1728   4.1900   4.2043   4.2216   4.2353   4.4898
     4.4932   4.5966   4.6028   4.6046   4.6150   4.6323   4.6583   4.6740
     4.6918   4.6964   4.7040   4.7121   4.7220   4.7230   4.7851   4.7934
     4.8529   4.9432   4.9860   5.0493   5.0706   5.0765   5.0907   5.0924
     5.1494   5.1598   5.1710   5.1718   5.1881   5.2043   5.2233   5.2266
     5.2639   5.3325   5.4617   5.5176   5.5233   5.6656   5.6771   5.7278
     5.7282   5.8608   5.8762   5.8831   5.8840   5.8981   5.9271   5.9334
     5.9641   5.9652   6.1201   6.1265   6.1296   6.3894   6.4181   6.4267
     6.4312   6.4600   6.5048   6.5107   6.5124   6.5223   6.5241   6.5320
     6.5375   6.6720   6.7755   6.7853   6.8570   6.8594   6.8927   6.9075
     6.9557   6.9799   6.9803   7.0278   7.0558   7.0621   7.0901   7.0924
     7.1069   7.1280   7.1350   7.1459   7.1474   7.1644   7.1737   7.1883
     7.2022   7.2046   7.2147   7.2167   7.2361   7.2507   7.2594   7.2608
     7.2634   7.2702   7.5180   7.5626   7.6293   7.6797   7.7737   7.7948
     7.8078   7.8152   7.8515   7.9053   8.0625   8.1331   8.1719   8.2113
     8.2141   8.2463   8.2681   8.2774   8.3931   8.5178   8.5307   8.5488
     8.5695   8.5777   8.5802   8.6057   8.6091   8.6235   9.0480   9.1287
    11.0103  11.0309  11.1310  11.1394  11.1879  11.3369  11.3760  11.4624
    11.4953  11.5430  11.5728  11.5837  11.5845  11.6022  11.6434  11.6726
    11.6986  11.8068  11.8208  11.8357  11.8967  11.9004  11.9107  11.9385
    11.9392  11.9407  11.9576  11.9639  12.0127  12.0548  12.0574  12.0630
    12.0636  12.1771  12.2284  12.2381  12.2684  12.2721  12.2742  12.2942
    12.3199  12.3438  12.3539  12.3558  12.3701  12.4059  12.4788  12.4811
    12.5148  12.5217  12.5226  12.5449  12.5660  12.6559  12.7375  12.7824
    12.8271

          k = 0.0000-0.5000 0.0000 ( 14026 PWs)   bands (ev):

   -48.2111 -48.1893 -48.0646 -47.7429 -47.6987 -47.6793 -47.6545 -47.6543
   -47.6316 -47.6188 -47.6183 -47.6152 -47.6150 -47.6020 -47.6019 -47.6003
   -47.5957 -47.5946 -47.5944 -47.5828 -47.5759 -47.5636 -47.5635 -47.5501
   -24.7793 -24.5868 -24.4860 -24.4237 -24.4060 -24.3984 -24.3848 -24.3667
   -24.2732 -24.1614 -24.1131 -24.1013 -24.0896 -24.0882 -24.0785 -24.0730
   -24.0728 -24.0646 -24.0594 -24.0533 -24.0519 -24.0516 -24.0444 -24.0052
   -23.9720 -23.9658 -23.9550 -23.9482 -23.9410 -23.9395 -23.9363 -23.9149
   -23.9118 -23.9099 -23.8980 -23.8873 -23.8634 -23.8599 -23.8591 -23.8530
   -23.8512 -23.8506 -23.8497 -23.8482 -23.8458 -23.8417 -23.8382 -23.8352
   -23.8258 -23.8235 -23.8227 -23.8200 -23.8183 -23.8168 -23.8033 -23.7905
   -23.7900 -23.7895 -23.7846 -23.7844 -23.7823 -23.7737 -23.7730 -23.7725
   -23.7679 -23.7653 -23.7592 -23.7577 -23.7312 -23.7176 -23.7156 -23.7071
   -12.9258  -8.8404  -8.8111  -8.4198  -8.3658  -8.3225  -8.2876  -8.1922
    -8.1451  -8.1092  -8.0430  -7.9787  -7.9445  -7.9181  -7.9033  -7.8875
    -7.8730  -7.8568  -7.8346  -7.8164  -7.7773  -7.7702  -7.7283  -7.7201
    -7.6659  -7.5796  -7.5734  -7.5645  -7.5502  -7.5356  -7.5076  -7.4908
    -7.4797  -7.4638  -7.4418  -7.4415  -7.4337  -7.3958  -7.3906  -7.3903
    -7.3681  -7.3621  -7.3473  -7.3308  -7.2918  -7.2904  -7.2430  -7.1967
     0.8753   1.3508   2.0945   3.8300   3.8527   3.9221   3.9948   4.0146
     4.0532   4.1358   4.1614   4.4607   4.4766   4.4908   4.4987   4.5152
     4.5264   4.5438   4.5822   4.6018   4.6333   4.6603   4.6958   4.7167
     4.7322   4.7334   4.7549   4.7611   4.7953   4.8037   4.8141   4.8180
     4.8410   4.8462   4.8540   4.8555   4.8635   4.8669   4.9144   5.0010
     5.0930   5.1186   5.1263   5.1721   5.3568   5.4013   5.4283   5.4477
     5.4585   5.5112   5.5303   5.5427   5.5542   5.5859   5.6197   5.6541
     5.6686   5.7048   5.7465   5.7511   5.7655   5.7757   5.7808   5.7935
     5.8025   5.8029   5.8127   5.8703   5.9171   5.9654   6.0540   6.0942
     6.1895   6.2055   6.2256   6.3258   6.3721   6.4794   6.4866   6.5460
     6.6078   6.8090   6.8361   6.8426   6.8582   6.8793   6.8954   6.9316
     6.9498   6.9691   6.9873   6.9915   7.0168   7.0358   7.0482   7.0593
     7.1534   7.1574   7.2035   7.2081   7.2836   7.3354   7.3941   7.3948
     7.3998   7.4088   7.4341   7.4518   7.4788   7.5257   7.5712   7.5926
     7.6235   7.6921   7.6950   7.7276   7.7344   7.7710   7.8014   7.8021
     7.8077   7.8157   7.9525   8.0822   8.0967   8.1558   8.1750   8.1927
     8.2030   8.2043   8.2617   8.2711   8.3095   8.3200   8.3428   8.3489
     8.3659   8.4241   8.4294   8.4567   8.4857   8.4859   8.9768   9.0802
    10.9714  11.2134  11.2218  11.3102  11.3448  11.3449  11.4282  11.4438
    11.4802  11.4932  11.4991  11.5177  11.5971  11.6075  11.6359  11.6630
    11.6957  11.7004  11.7193  11.7542  11.7562  11.7809  11.8549  11.9205
    11.9929  12.0056  12.0246  12.0315  12.0433  12.0733  12.0765  12.0798
    12.0940  12.1233  12.1319  12.1539  12.1570  12.2308  12.2640  12.2739
    12.3065  12.3219  12.3577  12.3706  12.3761  12.3841  12.4098  12.4406
    12.4576  12.4851  12.5057  12.6706  12.7200  12.7363  12.7645  12.7924
    12.8188

          k = 0.0000-0.5000-0.5172 ( 13952 PWs)   bands (ev):

   -48.2107 -48.1897 -48.0646 -47.7429 -47.6992 -47.6788 -47.6522 -47.6521
   -47.6288 -47.6220 -47.6218 -47.6147 -47.6143 -47.6043 -47.6005 -47.5992
   -47.5979 -47.5974 -47.5956 -47.5829 -47.5784 -47.5615 -47.5614 -47.5475
   -24.8058 -24.5551 -24.4923 -24.4517 -24.4056 -24.3836 -24.3789 -24.3699
   -24.2727 -24.2077 -24.1968 -24.1761 -24.1688 -24.1682 -24.1582 -24.0768
   -24.0763 -24.0071 -23.9781 -23.9732 -23.9491 -23.9416 -23.9386 -23.9305
   -23.9290 -23.9222 -23.9170 -23.9121 -23.9103 -23.9083 -23.9077 -23.9061
   -23.8990 -23.8963 -23.8848 -23.8788 -23.8739 -23.8693 -23.8618 -23.8612
   -23.8593 -23.8546 -23.8450 -23.8448 -23.8388 -23.8385 -23.8349 -23.8290
   -23.8287 -23.8253 -23.8215 -23.8208 -23.8202 -23.8165 -23.8127 -23.8122
   -23.8096 -23.7994 -23.7985 -23.7969 -23.7964 -23.7953 -23.7949 -23.7933
   -23.7885 -23.7860 -23.7791 -23.7777 -23.7701 -23.7694 -23.7684 -23.7565
   -12.9250  -8.6342  -8.6075  -8.5856  -8.5400  -8.2606  -8.1962  -8.1827
    -8.1569  -8.1443  -8.1126  -8.1089  -8.0725  -7.9875  -7.9628  -7.9367
    -7.8774  -7.8600  -7.8411  -7.8344  -7.8340  -7.7798  -7.7310  -7.7094
    -7.6810  -7.6010  -7.5804  -7.5721  -7.4822  -7.4726  -7.4641  -7.4489
    -7.4324  -7.4213  -7.4102  -7.4070  -7.3914  -7.3729  -7.3716  -7.3700
    -7.3211  -7.3196  -7.3161  -7.3119  -7.2948  -7.2944  -7.2876  -7.2845
     0.8792   1.3380   2.0929   4.0896   4.1102   4.1154   4.1931   4.1936
     4.2245   4.2434   4.2600   4.2738   4.2771   4.2870   4.3013   4.3227
     4.3299   4.3529   4.3672   4.4270   4.4344   4.4538   4.4716   4.4853
     4.4865   4.5111   4.5620   4.7577   4.7588   4.8019   4.8325   4.8467
     4.8700   4.9342   4.9440   4.9448   4.9500   4.9532   4.9748   4.9863
     5.0580   5.0747   5.0857   5.1048   5.1112   5.1330   5.1775   5.1855
     5.2199   5.3200   5.4631   5.5414   5.5621   5.5809   5.7082   5.7154
     5.7429   5.8424   5.8700   5.9429   5.9737   6.0256   6.1124   6.2765
     6.3215   6.3254   6.3490   6.3559   6.3595   6.3613   6.3693   6.3874
     6.3922   6.4474   6.4908   6.5315   6.5538   6.5861   6.5928   6.5971
     6.6068   6.6323   6.6560   6.6608   6.7297   6.7683   6.7831   6.8815
     6.9074   6.9402   6.9468   6.9525   6.9842   7.0206   7.0209   7.0299
     7.0569   7.0628   7.0759   7.0983   7.1114   7.2402   7.2565   7.2615
     7.2890   7.3101   7.3200   7.3289   7.3440   7.3684   7.3974   7.4064
     7.5096   7.5643   7.6243   7.6481   7.6756   7.7208   7.7416   7.7445
     7.8067   7.9749   7.9888   8.0226   8.0390   8.0763   8.1276   8.1477
     8.1496   8.1565   8.1740   8.1867   8.1952   8.2120   8.2272   8.2459
     8.3123   8.3431   8.4059   8.4279   8.7532   8.8927   8.9219   8.9550
    11.2280  11.2369  11.2488  11.3691  11.4002  11.4545  11.4703  11.4940
    11.5534  11.5774  11.6190  11.6521  11.6719  11.6889  11.7023  11.7516
    11.7769  11.7902  11.8091  11.8145  11.8427  11.8908  11.8976  11.9088
    11.9223  11.9411  11.9512  11.9576  11.9600  11.9883  12.0037  12.0375
    12.0721  12.0746  12.0938  12.0979  12.1054  12.1160  12.1183  12.1218
    12.1390  12.2914  12.3357  12.3462  12.3678  12.3809  12.4753  12.4792
    12.5103  12.5178  12.5208  12.5215  12.5389  12.6755  12.7198  12.7759
    12.8109

          k =-0.5000-0.5000 0.0000 ( 14028 PWs)   bands (ev):

   -48.2111 -48.1893 -48.0646 -47.7429 -47.6987 -47.6793 -47.6545 -47.6542
   -47.6316 -47.6189 -47.6181 -47.6154 -47.6148 -47.6022 -47.6016 -47.6003
   -47.5957 -47.5949 -47.5941 -47.5828 -47.5759 -47.5635 -47.5635 -47.5501
   -24.7793 -24.5868 -24.4861 -24.4237 -24.4058 -24.3985 -24.3849 -24.3667
   -24.2733 -24.1615 -24.1086 -24.1059 -24.0937 -24.0831 -24.0798 -24.0783
   -24.0658 -24.0631 -24.0603 -24.0574 -24.0551 -24.0455 -24.0422 -24.0085
   -23.9784 -23.9729 -23.9655 -23.9365 -23.9333 -23.9275 -23.9212 -23.9157
   -23.9148 -23.9069 -23.8862 -23.8860 -23.8779 -23.8757 -23.8684 -23.8605
   -23.8530 -23.8527 -23.8484 -23.8480 -23.8446 -23.8421 -23.8346 -23.8336
   -23.8312 -23.8257 -23.8190 -23.8172 -23.8153 -23.8099 -23.8013 -23.7987
   -23.7939 -23.7882 -23.7849 -23.7845 -23.7819 -23.7806 -23.7688 -23.7672
   -23.7651 -23.7616 -23.7587 -23.7582 -23.7315 -23.7169 -23.7159 -23.7074
   -12.9258  -8.7332  -8.7097  -8.6636  -8.6499  -8.1621  -8.1304  -8.1055
    -8.0955  -8.0593  -8.0086  -8.0061  -8.0028  -7.9754  -7.9668  -7.9437
    -7.8895  -7.8161  -7.7836  -7.7820  -7.7613  -7.6995  -7.6925  -7.6764
    -7.6516  -7.6370  -7.5948  -7.5810  -7.5734  -7.5729  -7.5574  -7.5375
    -7.5097  -7.4882  -7.4766  -7.4550  -7.4524  -7.3926  -7.3889  -7.3885
    -7.3863  -7.3731  -7.3526  -7.3393  -7.2477  -7.2281  -7.2120  -7.1699
     0.8722   1.3510   2.0984   3.6310   3.6423   3.7217   3.7859   4.3905
     4.4174   4.4281   4.4833   4.5086   4.5162   4.5569   4.5613   4.5932
     4.6020   4.6065   4.6162   4.6294   4.6324   4.6433   4.6533   4.6690
     4.6762   4.6920   4.6996   4.7146   4.7222   4.7370   4.7380   4.7514
     4.7796   4.8338   4.8569   4.9983   5.0266   5.0544   5.0760   5.0839
     5.0902   5.0951   5.1298   5.1453   5.1597   5.2544   5.2819   5.3548
     5.3618   5.3812   5.3944   5.3979   5.4127   5.4189   5.4406   5.4482
     5.4784   5.5138   5.5419   5.5554   5.5858   5.6930   5.9143   6.0413
     6.0598   6.0940   6.1487   6.1631   6.1648   6.1678   6.1979   6.2240
     6.2272   6.3743   6.3764   6.3792   6.4552   6.4646   6.5162   6.5225
     6.5267   6.5951   6.6316   6.7670   6.7731   6.7835   6.7991   6.8002
     6.8101   6.8155   6.8360   6.8530   6.9340   7.0015   7.0484   7.0834
     7.1047   7.1319   7.1328   7.1522   7.1694   7.2391   7.3671   7.3703
     7.4373   7.4553   7.4899   7.5303   7.5458   7.5551   7.6320   7.6460
     7.6730   7.6795   7.6955   7.7010   7.7931   7.8496   7.9168   7.9253
     7.9581   7.9630   7.9641   7.9803   8.0058   8.0262   8.0617   8.0918
     8.1207   8.1298   8.1323   8.1599   8.3082   8.4441   8.5085   8.5390
     8.5446   8.5493   8.5918   8.6031   8.7565   8.8133   8.8275   8.8998
    10.8312  11.0944  11.1357  11.1395  11.1576  11.1912  11.2713  11.2915
    11.3130  11.3781  11.3895  11.4085  11.5502  11.5732  11.6371  11.6727
    11.7284  11.7495  11.7749  11.7835  11.7862  11.8291  11.9863  12.0355
    12.0579  12.1176  12.1224  12.1269  12.1438  12.1756  12.1963  12.2228
    12.2631  12.2648  12.2710  12.2876  12.3029  12.3074  12.3124  12.3327
    12.3425  12.3427  12.3570  12.4034  12.4080  12.4265  12.4370  12.4412
    12.4466  12.4548  12.4644  12.4670  12.5128  12.5324  12.5786  12.6153
    12.6196

          k =-0.5000-0.5000-0.5172 ( 13984 PWs)   bands (ev):

   -48.2107 -48.1897 -48.0646 -47.7429 -47.6992 -47.6788 -47.6523 -47.6521
   -47.6288 -47.6221 -47.6216 -47.6146 -47.6143 -47.6044 -47.6003 -47.5993
   -47.5979 -47.5974 -47.5957 -47.5829 -47.5784 -47.5615 -47.5615 -47.5475
   -24.8058 -24.5551 -24.4923 -24.4517 -24.4055 -24.3836 -24.3789 -24.3700
   -24.2727 -24.2035 -24.2009 -24.1761 -24.1741 -24.1627 -24.1583 -24.0766
   -24.0760 -24.0086 -23.9789 -23.9761 -23.9475 -23.9450 -23.9367 -23.9337
   -23.9269 -23.9235 -23.9224 -23.9153 -23.9104 -23.9009 -23.8928 -23.8921
   -23.8890 -23.8869 -23.8835 -23.8812 -23.8783 -23.8754 -23.8682 -23.8673
   -23.8664 -23.8622 -23.8533 -23.8456 -23.8401 -23.8379 -23.8338 -23.8294
   -23.8248 -23.8231 -23.8228 -23.8225 -23.8206 -23.8168 -23.8149 -23.8118
   -23.8092 -23.8074 -23.7996 -23.7987 -23.7952 -23.7934 -23.7933 -23.7901
   -23.7886 -23.7873 -23.7792 -23.7727 -23.7711 -23.7684 -23.7624 -23.7565
   -12.9250  -8.5578  -8.5340  -8.4810  -8.4520  -8.4460  -8.4317  -8.4058
    -8.3978  -8.0542  -8.0395  -8.0346  -7.9365  -7.8702  -7.8611  -7.8596
    -7.8545  -7.8169  -7.7900  -7.7672  -7.7499  -7.7274  -7.7111  -7.6958
    -7.6768  -7.6424  -7.6250  -7.6155  -7.5937  -7.5740  -7.5702  -7.5113
    -7.5113  -7.4992  -7.4946  -7.4693  -7.3978  -7.3760  -7.3473  -7.3353
    -7.3252  -7.3092  -7.3005  -7.2781  -7.2748  -7.2378  -7.2360  -7.1887
     0.8763   1.3379   2.0956   3.9010   3.9145   3.9168   3.9835   3.9996
     4.0180   4.0441   4.1708   4.2013   4.2112   4.2168   4.2542   4.6678
     4.6929   4.7041   4.7231   4.7283   4.7325   4.7519   4.7526   4.7534
     4.7782   4.7799   4.7883   4.8022   4.8068   4.8103   4.8223   4.8313
     4.8446   4.8535   4.8978   4.9419   4.9527   4.9944   5.0096   5.0106
     5.0270   5.0752   5.0880   5.0909   5.1049   5.1053   5.1109   5.1392
     5.1626   5.1683   5.1837   5.1852   5.2265   5.4498   5.6955   5.6977
     5.7078   5.7443   5.7805   5.7899   5.8325   5.8921   5.9197   6.1264
     6.1468   6.1835   6.1958   6.2119   6.2522   6.3220   6.3235   6.4094
     6.4460   6.4479   6.5140   6.5654   6.5976   6.6113   6.6202   6.6255
     6.6520   6.6622   6.6695   6.6844   6.6898   6.7013   6.7061   6.7118
     6.7308   6.8773   6.9780   7.0016   7.0060   7.0282   7.0319   7.0621
     7.0918   7.1100   7.1550   7.1605   7.1629   7.1907   7.1934   7.2086
     7.2225   7.3182   7.3411   7.3999   7.4801   7.5953   7.7047   7.7148
     7.7699   7.7821   7.8412   7.8717   7.8720   7.8991   7.9538   7.9766
     8.0013   8.0016   8.0128   8.0143   8.0350   8.0383   8.0426   8.0472
     8.0498   8.0721   8.0733   8.0769   8.0783   8.0983   8.1002   8.1254
     8.3312   8.5475   8.5717   8.5947   8.6258   8.6344   8.6470   8.6717
    11.1355  11.2037  11.2229  11.2818  11.3524  11.3799  11.4375  11.4462
    11.4532  11.5191  11.5362  11.5730  11.5752  11.6050  11.6225  11.6325
    11.6391  11.6602  11.6882  11.7055  11.8052  11.8444  11.9008  11.9664
    11.9814  11.9886  12.0013  12.0146  12.0524  12.0565  12.0818  12.1015
    12.1114  12.1717  12.2577  12.3117  12.3162  12.3376  12.3734  12.3950
    12.4297  12.4402  12.4415  12.4420  12.4566  12.4585  12.4638  12.4722
    12.4792  12.4810  12.4848  12.4896  12.5044  12.5066  12.5154  12.5193
    12.5216

     the Fermi energy is    10.0128 ev

!    total energy              =   -4359.65846635 Ry
     Harris-Foulkes estimate   =   -4359.65846635 Ry
     estimated scf accuracy    <          7.3E-09 Ry

     The total energy is the sum of the following terms:

     one-electron contribution =   -1518.13365199 Ry
     hartree contribution      =    1033.17206996 Ry
     xc contribution           =    -687.40161049 Ry
     ewald contribution        =   -3187.29527383 Ry
     smearing contrib. (-TS)   =      -0.00000000 Ry

     total magnetization       =     0.00 Bohr mag/cell
     absolute magnetization    =     0.00 Bohr mag/cell

     convergence has been achieved in  24 iterations
 forces --- starting time for forces:
     forces       :      0.00s CPU      0.00s WALL (       1 calls)

     Forces acting on atoms (Ry/au):

 forces --- nonlocal contribution:
     forces       :      2.53s CPU      2.53s WALL (       2 calls)
 forces --- local contribution:
     forces       :      2.54s CPU      2.54s WALL (       3 calls)
 forces --- NLCC contribution:
     forces       :      2.54s CPU      2.54s WALL (       4 calls)
 forces --- Hubbard contribution:
     forces       :      2.54s CPU      2.54s WALL (       5 calls)
 forces --- ionic contribution:
     forces       :      2.55s CPU      2.56s WALL (       6 calls)
 forces --- SCF contribution:
     forces       :      2.67s CPU      2.67s WALL (       7 calls)
     atom   1 type  2   force =    -0.10223320   -0.10223320    0.00000000
     atom   2 type  2   force =    -0.01173951   -0.01173951    0.01864432
     atom   3 type  2   force =    -0.01173951   -0.01173951   -0.01864432
     atom   4 type  2   force =    -0.01383232    0.01859095    0.00000000
     atom   5 type  2   force =    -0.00919107    0.00881336    0.01074857
     atom   6 type  2   force =    -0.00919107    0.00881336   -0.01074857
     atom   7 type  2   force =     0.01859095   -0.01383232    0.00000000
     atom   8 type  2   force =     0.00881336   -0.00919107    0.01074857
     atom   9 type  2   force =     0.00881336   -0.00919107   -0.01074857
     atom  10 type  2   force =     0.01677353    0.01677353    0.00000000
     atom  11 type  2   force =     0.01253458    0.01253458    0.00185943
     atom  12 type  2   force =     0.01253458    0.01253458   -0.00185943
     atom  13 type  2   force =     0.06670796    0.06670796    0.12773206
     atom  14 type  2   force =    -0.00032161   -0.00032161    0.00000000
     atom  15 type  2   force =     0.06670796    0.06670796   -0.12773206
     atom  16 type  2   force =     0.00904135   -0.01152169    0.00435806
     atom  17 type  2   force =     0.00244359   -0.00199231    0.00000000
     atom  18 type  2   force =     0.00904135   -0.01152169   -0.00435806
     atom  19 type  2   force =    -0.01152169    0.00904135    0.00435806
     atom  20 type  2   force =    -0.00199231    0.00244359    0.00000000
     atom  21 type  2   force =    -0.01152169    0.00904135   -0.00435806
     atom  22 type  2   force =    -0.00543798   -0.00543798    0.00793160
     atom  23 type  2   force =    -0.00204826   -0.00204826    0.00000000
     atom  24 type  2   force =    -0.00543798   -0.00543798   -0.00793160
     atom  25 type  3   force =    -0.01114677   -0.01114677    0.00000000
     atom  26 type  1   force =     0.01254952    0.01254952   -0.01894103
     atom  27 type  1   force =     0.01254952    0.01254952    0.01894103
     atom  28 type  1   force =     0.00492459    0.00529945    0.00000000
     atom  29 type  1   force =     0.00557591    0.00589667   -0.00293338
     atom  30 type  1   force =     0.00557591    0.00589667    0.00293338
     atom  31 type  1   force =     0.00529945    0.00492459    0.00000000
     atom  32 type  1   force =     0.00589667    0.00557591   -0.00293338
     atom  33 type  1   force =     0.00589667    0.00557591    0.00293338
     atom  34 type  1   force =     0.00555237    0.00555237    0.00000000
     atom  35 type  1   force =     0.00604542    0.00604542   -0.00171390
     atom  36 type  1   force =     0.00604542    0.00604542    0.00171390
     atom  37 type  1   force =    -0.03901501   -0.03901501    0.00000000
     atom  38 type  1   force =    -0.02575913   -0.02575913   -0.02605402
     atom  39 type  1   force =    -0.02575913   -0.02575913    0.02605402
     atom  40 type  1   force =    -0.00784942   -0.00079761    0.00000000
     atom  41 type  1   force =    -0.00715159   -0.00433615   -0.00244072
     atom  42 type  1   force =    -0.00715159   -0.00433615    0.00244072
     atom  43 type  1   force =    -0.00079761   -0.00784942    0.00000000
     atom  44 type  1   force =    -0.00433615   -0.00715159   -0.00244072
     atom  45 type  1   force =    -0.00433615   -0.00715159    0.00244072
     atom  46 type  1   force =     0.01644896    0.01644896    0.00000000
     atom  47 type  1   force =    -0.00170858   -0.00170858   -0.00244380
     atom  48 type  1   force =    -0.00170858   -0.00170858    0.00244380
     atom  49 type  1   force =     0.01029287   -0.02118142   -0.01158996
     atom  50 type  1   force =    -0.00135861    0.00151861    0.00000000
     atom  51 type  1   force =     0.01029287   -0.02118142    0.01158996
     atom  52 type  1   force =    -0.00837329    0.02638724   -0.01785569
     atom  53 type  1   force =    -0.00921470    0.01200049    0.00000000
     atom  54 type  1   force =    -0.00837329    0.02638724    0.01785569
     atom  55 type  1   force =    -0.00808603    0.00483371   -0.00160644
     atom  56 type  1   force =    -0.00973780    0.00605007    0.00000000
     atom  57 type  1   force =    -0.00808603    0.00483371    0.00160644
     atom  58 type  1   force =    -0.00896973    0.00983341   -0.00229021
     atom  59 type  1   force =    -0.01001193    0.00984528    0.00000000
     atom  60 type  1   force =    -0.00896973    0.00983341    0.00229021
     atom  61 type  1   force =    -0.02118142    0.01029287   -0.01158996
     atom  62 type  1   force =     0.00151861   -0.00135861    0.00000000
     atom  63 type  1   force =    -0.02118142    0.01029287    0.01158996
     atom  64 type  1   force =     0.00483371   -0.00808603   -0.00160644
     atom  65 type  1   force =     0.00605007   -0.00973780    0.00000000
     atom  66 type  1   force =     0.00483371   -0.00808603    0.00160644
     atom  67 type  1   force =     0.02638724   -0.00837329   -0.01785569
     atom  68 type  1   force =     0.01200049   -0.00921470    0.00000000
     atom  69 type  1   force =     0.02638724   -0.00837329    0.01785569
     atom  70 type  1   force =     0.00983341   -0.00896973   -0.00229021
     atom  71 type  1   force =     0.00984528   -0.01001193    0.00000000
     atom  72 type  1   force =     0.00983341   -0.00896973    0.00229021

     Total force =     0.311040     Total SCF correction =     0.000383


     entering subroutine stress ...

          total   stress  (Ry/bohr**3)                   (kbar)     P=   23.21
   0.00016637   0.00004716   0.00000000         24.47      6.94      0.00
   0.00004716   0.00016637   0.00000000          6.94     24.47      0.00
   0.00000000   0.00000000   0.00014061          0.00      0.00     20.68


     Writing output data file tio2.O25-FCH.save
 
     init_run     :     13.81s CPU     14.58s WALL (       1 calls)
     electrons    :    964.52s CPU    977.01s WALL (       1 calls)
     forces       :      2.67s CPU      2.67s WALL (       8 calls)
     stress       :     10.60s CPU     10.61s WALL (       1 calls)

     Called by init_run:
     wfcinit      :     11.75s CPU     11.94s WALL (       1 calls)
     potinit      :      0.19s CPU      0.19s WALL (       1 calls)

     Called by electrons:
     c_bands      :    831.68s CPU    842.18s WALL (      24 calls)
     sum_band     :    113.14s CPU    113.58s WALL (      24 calls)
     v_of_rho     :      1.15s CPU      1.16s WALL (      25 calls)
     newd         :     16.15s CPU     16.15s WALL (      25 calls)
     mix_rho      :      0.90s CPU      0.91s WALL (      24 calls)

     Called by c_bands:
     init_us_2    :      0.57s CPU      0.74s WALL (     612 calls)
     cegterg      :    827.64s CPU    837.40s WALL (     288 calls)

     Called by *egterg:
     h_psi        :    420.83s CPU    422.39s WALL (    1523 calls)
     s_psi        :     15.62s CPU     15.63s WALL (    1523 calls)
     g_psi        :      0.22s CPU      0.22s WALL (    1223 calls)
     cdiaghg      :    349.84s CPU    357.85s WALL (    1511 calls)

     Called by h_psi:
     add_vuspsi   :     15.38s CPU     15.45s WALL (    1523 calls)

     General routines
     calbec       :     31.32s CPU     31.52s WALL (    1835 calls)
     fft          :      2.13s CPU      2.15s WALL (     778 calls)
     ffts         :      0.63s CPU      0.63s WALL (     665 calls)
     fftw         :    465.64s CPU    467.27s WALL (  548174 calls)
     interpolate  :      0.30s CPU      0.31s WALL (      98 calls)
     davcio       :      0.14s CPU      0.78s WALL (     912 calls)
 
     Parallel routines
     fft_scatter  :    422.60s CPU    424.05s WALL (  549617 calls)
 
     PWSCF        : 16m41.65s CPU    16m57.03s WALL

 
   This run was terminated on:  11:38:59  29Aug2018            

=------------------------------------------------------------------------------=
   JOB DONE.
=------------------------------------------------------------------------------=
