
     Program PWSCF v.4.3        starts on  5Sep2018 at 16:44:12 

     This program is part of the open-source Quantum ESPRESSO suite
     for quantum simulation of materials; please cite
         "P. Giannozzi et al., J. Phys.:Condens. Matter 21 395502 (2009);
          URL http://www.quantum-espresso.org", 
     in publications or presentations arising from this work. More details at
     http://www.quantum-espresso.org/wiki/index.php/Citing_Quantum-ESPRESSO

     Parallel version (MPI), running on     1 processors

     Current dimensions of program PWSCF are:
     Max number of different atomic species (ntypx) = **
     Max number of k-points (npk) =  40000
     Max angular momentum in pseudopotentials (lmaxx) =  3
     Waiting for input...

     Subspace diagonalization in iterative solution of the eigenvalue problem:
     a serial algorithm will be used

 
   Stick Mesh
   ----------
   nst = 12187,  nstw =  1523, nsts =  6097
               n.st   n.stw   n.sts    n.g    n.gw   n.gs
   min       12187    1523    6097  691275   30529  244257
   max       12187    1523    6097  691275   30529  244257
      12187    1523    6097  691275   30529  244257
 


     bravais-lattice index     =           14
     lattice parameter (a_0)   =      27.0483  a.u.
     unit-cell volume          =   14469.9029 (a.u.)^3
     number of atoms/cell      =            1
     number of atomic types    =            1
     number of electrons       =         4.00
     number of Kohn-Sham states=            6
     kinetic-energy cutoff     =      25.0000  Ry
     charge density cutoff     =     200.0000  Ry
     convergence threshold     =      1.0E-08
     mixing beta               =       0.1000
     number of iterations used =            8  local-TF  mixing
     Exchange-correlation      = SLA  PW   PBE  PBE (1434)
     EXX-fraction              =        0.00

     celldm(1)=  27.048255  celldm(2)=   1.046618  celldm(3)=   0.698650
     celldm(4)=   0.000000  celldm(5)=   0.000000  celldm(6)=   0.000000

     crystal axes: (cart. coord. in units of a_0)
               a(1) = (   1.000000   0.000000   0.000000 )  
               a(2) = (   0.000000   1.046618   0.000000 )  
               a(3) = (   0.000000   0.000000   0.698650 )  

     reciprocal axes: (cart. coord. in units 2 pi/a_0)
               b(1) = (  1.000000  0.000000  0.000000 )  
               b(2) = (  0.000000  0.955458  0.000000 )  
               b(3) = (  0.000000  0.000000  1.431332 )  


     PseudoPot. # 1 for C  read from file C.pbe-van-yufengl.UPF
     MD5 check sum: 53b91e9bc0fbd261922308fb0e321ce8
     Pseudo is Ultrasoft, Zval =  4.0
     Generated by new atomic code, or converted to UPF format
     Using radial grid of  745 points,  4 beta functions with: 
                l(1) =   0
                l(2) =   0
                l(3) =   1
                l(4) =   1
     Q(r) pseudized with  8 coefficients,  rinner =    0.800   0.800   0.800


     atomic species   valence    mass     pseudopotential
        C              4.00    12.00000     C ( 1.00)

      8 Sym.Ops. (with inversion)


   Cartesian axes

     site n.     atom                  positions (a_0 units)
         1           C   tau(  1) = (   0.0000000   0.0000000   0.0000000  )

     number of k points=     1  Fermi-Dirac smearing, width (Ry)=  0.0019
                       cart. coord. in units 2pi/a_0
        k(    1) = (   0.0000000   0.0000000   0.0000000), wk =   2.0000000

     G cutoff = 3706.3699  ( 691275 G-vectors)     FFT grid: (125,128, 90)
     G cutoff = 1853.1849  ( 244257 G-vectors)  smooth grid: ( 90, 96, 64)

     Largest allocated arrays     est. size (Mb)     dimensions
        Kohn-Sham Wavefunctions         2.80 Mb     (  30529,   6)
        NL pseudopotentials             3.73 Mb     (  30529,   8)
        Each V/rho on FFT grid         21.97 Mb     (1440000)
        Each G-vector array             5.27 Mb     ( 691275)
        G-vector shells                 0.69 Mb     (  90057)
     Largest temporary arrays     est. size (Mb)     dimensions
        Auxiliary wavefunctions        11.18 Mb     (  30529,  24)
        Each subspace H/S matrix        0.01 Mb     (     24,  24)
        Each <psi_i|beta_j> matrix      0.00 Mb     (      8,   6)
        Arrays for rho mixing         175.78 Mb     (1440000,   8)

     Initial potential from superposition of free atoms
     Check: negative starting charge=   -0.002474

     starting charge    3.99996, renormalised to    4.00000

     negative rho (up, down):  0.247E-02 0.000E+00
     Starting wfc are    5 atomic +    1 random wfc

     total cpu time spent up to now is      3.85 secs

     per-process dynamical memory:   298.8 Mb

     Self-consistent Calculation

     iteration #  1     ecut=    25.00 Ry     beta=0.10
     Davidson diagonalization with overlap
     ethr =  1.00E-02,  avg # of iterations =  6.0

     Threshold (ethr) on eigenvalues was too large:
     Diagonalizing with lowered threshold

     Davidson diagonalization with overlap
     c_bands:  1 eigenvalues not converged
     ethr =  7.58E-07,  avg # of iterations = 20.0

     negative rho (up, down):  0.208E-02 0.000E+00

     total cpu time spent up to now is     18.62 secs

     total energy              =     -10.72321244 Ry
     Harris-Foulkes estimate   =     -10.72320829 Ry
     estimated scf accuracy    <       0.00006285 Ry

     iteration #  2     ecut=    25.00 Ry     beta=0.10
     Davidson diagonalization with overlap
     ethr =  1.57E-06,  avg # of iterations =  3.0

     negative rho (up, down):  0.291E-02 0.000E+00

     total cpu time spent up to now is     37.66 secs

     total energy              =     -10.72321110 Ry
     Harris-Foulkes estimate   =     -10.72321259 Ry
     estimated scf accuracy    <       0.00005120 Ry

     iteration #  3     ecut=    25.00 Ry     beta=0.10
     Davidson diagonalization with overlap
     ethr =  1.28E-06,  avg # of iterations =  1.0

     negative rho (up, down):  0.478E-02 0.000E+00

     total cpu time spent up to now is     48.17 secs

     total energy              =     -10.72320632 Ry
     Harris-Foulkes estimate   =     -10.72321352 Ry
     estimated scf accuracy    <       0.00001583 Ry

     iteration #  4     ecut=    25.00 Ry     beta=0.10
     Davidson diagonalization with overlap
     ethr =  3.96E-07,  avg # of iterations =  7.0

     negative rho (up, down):  0.403E-02 0.000E+00

     total cpu time spent up to now is     58.85 secs

     total energy              =     -10.72322005 Ry
     Harris-Foulkes estimate   =     -10.72320898 Ry
     estimated scf accuracy    <       0.00000061 Ry

     iteration #  5     ecut=    25.00 Ry     beta=0.10
     Davidson diagonalization with overlap
     ethr =  1.53E-08,  avg # of iterations =  2.0

     negative rho (up, down):  0.299E-02 0.000E+00

     total cpu time spent up to now is     70.38 secs

     total energy              =     -10.72322001 Ry
     Harris-Foulkes estimate   =     -10.72322013 Ry
     estimated scf accuracy    <       0.00000054 Ry

     iteration #  6     ecut=    25.00 Ry     beta=0.10
     Davidson diagonalization with overlap
     ethr =  1.35E-08,  avg # of iterations =  2.0

     negative rho (up, down):  0.257E-02 0.000E+00

     total cpu time spent up to now is     81.25 secs

     total energy              =     -10.72322470 Ry
     Harris-Foulkes estimate   =     -10.72322007 Ry
     estimated scf accuracy    <       0.00000026 Ry

     iteration #  7     ecut=    25.00 Ry     beta=0.10
     Davidson diagonalization with overlap
     ethr =  6.62E-09,  avg # of iterations =  1.0

     negative rho (up, down):  0.242E-02 0.000E+00

     total cpu time spent up to now is     91.45 secs

     total energy              =     -10.72321703 Ry
     Harris-Foulkes estimate   =     -10.72322471 Ry
     estimated scf accuracy    <       0.00000010 Ry

     iteration #  8     ecut=    25.00 Ry     beta=0.10
     Davidson diagonalization with overlap
     ethr =  2.53E-09,  avg # of iterations =  3.0

     negative rho (up, down):  0.224E-02 0.000E+00

     total cpu time spent up to now is    111.16 secs

     total energy              =     -10.72322005 Ry
     Harris-Foulkes estimate   =     -10.72321711 Ry
     estimated scf accuracy    <       0.00000046 Ry

     iteration #  9     ecut=    25.00 Ry     beta=0.10
     Davidson diagonalization with overlap
     ethr =  2.53E-09,  avg # of iterations =  2.0

     negative rho (up, down):  0.198E-02 0.000E+00

     total cpu time spent up to now is    121.16 secs

     total energy              =     -10.72322558 Ry
     Harris-Foulkes estimate   =     -10.72322007 Ry
     estimated scf accuracy    <       0.00000034 Ry

     iteration # 10     ecut=    25.00 Ry     beta=0.10
     Davidson diagonalization with overlap
     ethr =  2.53E-09,  avg # of iterations =  2.0

     negative rho (up, down):  0.161E-02 0.000E+00

     total cpu time spent up to now is    134.63 secs

     total energy              =     -10.72321977 Ry
     Harris-Foulkes estimate   =     -10.72322561 Ry
     estimated scf accuracy    <       0.00000002 Ry

     iteration # 11     ecut=    25.00 Ry     beta=0.10
     Davidson diagonalization with overlap
     ethr =  5.17E-10,  avg # of iterations =  2.0

     negative rho (up, down):  0.138E-02 0.000E+00

     total cpu time spent up to now is    145.30 secs

     total energy              =     -10.72321366 Ry
     Harris-Foulkes estimate   =     -10.72321977 Ry
     estimated scf accuracy    <       0.00000012 Ry

     iteration # 12     ecut=    25.00 Ry     beta=0.10
     Davidson diagonalization with overlap
     ethr =  5.17E-10,  avg # of iterations =  2.0

     negative rho (up, down):  0.151E-02 0.000E+00

     total cpu time spent up to now is    147.67 secs

     End of self-consistent calculation

          k = 0.0000 0.0000 0.0000 ( 30529 PWs)   bands (ev):

   -13.7187  -5.2119  -5.2119  -5.2118  -0.3832   0.2760

     the Fermi energy is    -5.2298 ev

!    total energy              =     -10.72319796 Ry
     Harris-Foulkes estimate   =     -10.72321366 Ry
     estimated scf accuracy    <          5.3E-09 Ry

     The total energy is the sum of the following terms:

     one-electron contribution =     -13.11918159 Ry
     hartree contribution      =       6.98715909 Ry
     xc contribution           =      -2.81594263 Ry
     ewald contribution        =      -1.76797657 Ry
     smearing contrib. (-TS)   =      -0.00725626 Ry

     convergence has been achieved in  12 iterations
 forces --- starting time for forces:
     forces       :      0.00s CPU      0.00s WALL (       1 calls)

     Forces acting on atoms (Ry/au):

 forces --- nonlocal contribution:
     forces       :      0.64s CPU      0.68s WALL (       2 calls)
 forces --- local contribution:
     forces       :      0.71s CPU      0.75s WALL (       3 calls)
 forces --- NLCC contribution:
     forces       :      0.71s CPU      0.75s WALL (       4 calls)
 forces --- Hubbard contribution:
     forces       :      0.71s CPU      0.75s WALL (       5 calls)
 forces --- ionic contribution:
     forces       :      0.73s CPU      0.77s WALL (       6 calls)
 forces --- SCF contribution:
     forces       :      1.27s CPU      1.31s WALL (       7 calls)
     atom   1 type  1   force =     0.00000000    0.00000000    0.00000000

     Total force =     0.000000     Total SCF correction =     0.000000


     entering subroutine stress ...

          total   stress  (Ry/bohr**3)                   (kbar)     P=   -0.21
  -0.00000139   0.00000000   0.00000000         -0.20      0.00      0.00
   0.00000000  -0.00000139   0.00000000          0.00     -0.20      0.00
   0.00000000   0.00000000  -0.00000141          0.00      0.00     -0.21


     Writing output data file atom.C-GS.save
 
     init_run     :      3.13s CPU      3.73s WALL (       1 calls)
     electrons    :    141.88s CPU    143.82s WALL (       1 calls)
     forces       :      1.27s CPU      1.31s WALL (       8 calls)
     stress       :      3.63s CPU      3.78s WALL (       1 calls)

     Called by init_run:
     wfcinit      :      0.16s CPU      0.57s WALL (       1 calls)
     potinit      :      1.36s CPU      1.44s WALL (       1 calls)

     Called by electrons:
     c_bands      :      6.49s CPU      6.55s WALL (      13 calls)
     sum_band     :      8.13s CPU      8.49s WALL (      13 calls)
     v_of_rho     :      8.16s CPU      8.72s WALL (      13 calls)
     newd         :      7.37s CPU      7.72s WALL (      13 calls)
     mix_rho      :    111.27s CPU    111.52s WALL (      13 calls)

     Called by c_bands:
     init_us_2    :      0.12s CPU      0.13s WALL (      27 calls)
     cegterg      :      6.32s CPU      6.38s WALL (      13 calls)

     Called by *egterg:
     h_psi        :      6.04s CPU      6.04s WALL (      67 calls)
     s_psi        :      0.04s CPU      0.04s WALL (      67 calls)
     g_psi        :      0.04s CPU      0.04s WALL (      53 calls)
     cdiaghg      :      0.01s CPU      0.46s WALL (      65 calls)

     Called by h_psi:
     add_vuspsi   :      0.04s CPU      0.04s WALL (      67 calls)

     General routines
     calbec       :      0.06s CPU      0.06s WALL (      82 calls)
     fft          :      9.27s CPU      9.50s WALL (     216 calls)
     ffts         :     62.09s CPU     62.09s WALL (    4405 calls)
     fftw         :      6.23s CPU      6.23s WALL (     562 calls)
     interpolate  :      1.72s CPU      1.89s WALL (      26 calls)
     davcio       :      0.00s CPU      0.02s WALL (      13 calls)
 
     Parallel routines
 
     PWSCF        :  2m30.10s CPU     2m33.02s WALL

 
   This run was terminated on:  16:46:45   5Sep2018            

=------------------------------------------------------------------------------=
   JOB DONE.
=------------------------------------------------------------------------------=
