
     Program PWSCF v.4.3        starts on  5Sep2018 at 16:46:47 

     This program is part of the open-source Quantum ESPRESSO suite
     for quantum simulation of materials; please cite
         "P. Giannozzi et al., J. Phys.:Condens. Matter 21 395502 (2009);
          URL http://www.quantum-espresso.org", 
     in publications or presentations arising from this work. More details at
     http://www.quantum-espresso.org/wiki/index.php/Citing_Quantum-ESPRESSO

     Parallel version (MPI), running on     1 processors

     Current dimensions of program PWSCF are:
     Max number of different atomic species (ntypx) = **
     Max number of k-points (npk) =  40000
     Max angular momentum in pseudopotentials (lmaxx) =  3
     Waiting for input...

     Subspace diagonalization in iterative solution of the eigenvalue problem:
     a serial algorithm will be used

 
   Stick Mesh
   ----------
   nst = 12187,  nstw =  1523, nsts =  6097
               n.st   n.stw   n.sts    n.g    n.gw   n.gs
   min       12187    1523    6097  691275   30529  244257
   max       12187    1523    6097  691275   30529  244257
      12187    1523    6097  691275   30529  244257
 


     bravais-lattice index     =           14
     lattice parameter (a_0)   =      27.0483  a.u.
     unit-cell volume          =   14469.9029 (a.u.)^3
     number of atoms/cell      =            1
     number of atomic types    =            1
     number of electrons       =         5.00
     number of Kohn-Sham states=            6
     kinetic-energy cutoff     =      25.0000  Ry
     charge density cutoff     =     200.0000  Ry
     convergence threshold     =      1.0E-08
     mixing beta               =       0.1000
     number of iterations used =            8  local-TF  mixing
     Exchange-correlation      = SLA  PW   PBE  PBE (1434)
     EXX-fraction              =        0.00

     celldm(1)=  27.048255  celldm(2)=   1.046618  celldm(3)=   0.698650
     celldm(4)=   0.000000  celldm(5)=   0.000000  celldm(6)=   0.000000

     crystal axes: (cart. coord. in units of a_0)
               a(1) = (   1.000000   0.000000   0.000000 )  
               a(2) = (   0.000000   1.046618   0.000000 )  
               a(3) = (   0.000000   0.000000   0.698650 )  

     reciprocal axes: (cart. coord. in units 2 pi/a_0)
               b(1) = (  1.000000  0.000000  0.000000 )  
               b(2) = (  0.000000  0.955458  0.000000 )  
               b(3) = (  0.000000  0.000000  1.431332 )  


     PseudoPot. # 1 for ca read from file C.pbe-van-dgp-1s1.UPF
     MD5 check sum: 7a057fccb4e0c23f2c81e6fc41f767cb
     Pseudo is Ultrasoft, Zval =  5.0
     Generated by new atomic code, or converted to UPF format
     Using radial grid of  721 points,  4 beta functions with: 
                l(1) =   0
                l(2) =   0
                l(3) =   1
                l(4) =   1
     Q(r) pseudized with  8 coefficients,  rinner =    0.800   0.800   0.800


     atomic species   valence    mass     pseudopotential
        CX             5.00    12.00000     ca( 1.00)

      8 Sym.Ops. (with inversion)


   Cartesian axes

     site n.     atom                  positions (a_0 units)
         1           CX  tau(  1) = (   0.0000000   0.0000000   0.0000000  )

     number of k points=     1  Fermi-Dirac smearing, width (Ry)=  0.0019
                       cart. coord. in units 2pi/a_0
        k(    1) = (   0.0000000   0.0000000   0.0000000), wk =   2.0000000

     G cutoff = 3706.3699  ( 691275 G-vectors)     FFT grid: (125,128, 90)
     G cutoff = 1853.1849  ( 244257 G-vectors)  smooth grid: ( 90, 96, 64)

     Largest allocated arrays     est. size (Mb)     dimensions
        Kohn-Sham Wavefunctions         2.80 Mb     (  30529,   6)
        NL pseudopotentials             3.73 Mb     (  30529,   8)
        Each V/rho on FFT grid         21.97 Mb     (1440000)
        Each G-vector array             5.27 Mb     ( 691275)
        G-vector shells                 0.69 Mb     (  90057)
     Largest temporary arrays     est. size (Mb)     dimensions
        Auxiliary wavefunctions        11.18 Mb     (  30529,  24)
        Each subspace H/S matrix        0.01 Mb     (     24,  24)
        Each <psi_i|beta_j> matrix      0.00 Mb     (      8,   6)
        Arrays for rho mixing         175.78 Mb     (1440000,   8)

     Initial potential from superposition of free atoms
     Check: negative starting charge=   -0.006001

     starting charge    4.00000, renormalised to    5.00000

     negative rho (up, down):  0.750E-02 0.000E+00
     Starting wfc are    4 atomic +    2 random wfc

     total cpu time spent up to now is      3.30 secs

     per-process dynamical memory:   298.7 Mb

     Self-consistent Calculation

     iteration #  1     ecut=    25.00 Ry     beta=0.10
     Davidson diagonalization with overlap
     ethr =  1.00E-02,  avg # of iterations =  5.0

     negative rho (up, down):  0.165E-01 0.000E+00

     total cpu time spent up to now is     17.10 secs

     total energy              =     -18.81488905 Ry
     Harris-Foulkes estimate   =     -18.83574805 Ry
     estimated scf accuracy    <       0.33355502 Ry

     iteration #  2     ecut=    25.00 Ry     beta=0.10
     Davidson diagonalization with overlap
     ethr =  6.67E-03,  avg # of iterations =  1.0

     negative rho (up, down):  0.160E+00 0.000E+00

     total cpu time spent up to now is     25.08 secs

     total energy              =     -18.67613990 Ry
     Harris-Foulkes estimate   =     -18.81897602 Ry
     estimated scf accuracy    <       0.28613307 Ry

     iteration #  3     ecut=    25.00 Ry     beta=0.10
     Davidson diagonalization with overlap
     ethr =  5.72E-03,  avg # of iterations =  2.0

     negative rho (up, down):  0.156E+00 0.000E+00

     total cpu time spent up to now is     32.50 secs

     total energy              =     -18.72359570 Ry
     Harris-Foulkes estimate   =     -18.72435443 Ry
     estimated scf accuracy    <       0.01159048 Ry

     iteration #  4     ecut=    25.00 Ry     beta=0.10
     Davidson diagonalization with overlap
     ethr =  2.32E-04,  avg # of iterations =  3.0

     negative rho (up, down):  0.135E+00 0.000E+00

     total cpu time spent up to now is     40.08 secs

     total energy              =     -18.72310097 Ry
     Harris-Foulkes estimate   =     -18.72429839 Ry
     estimated scf accuracy    <       0.00891736 Ry

     iteration #  5     ecut=    25.00 Ry     beta=0.10
     Davidson diagonalization with overlap
     ethr =  1.78E-04,  avg # of iterations =  1.0

     negative rho (up, down):  0.933E-01 0.000E+00

     total cpu time spent up to now is     49.78 secs

     total energy              =     -18.71965047 Ry
     Harris-Foulkes estimate   =     -18.72322161 Ry
     estimated scf accuracy    <       0.00812466 Ry

     iteration #  6     ecut=    25.00 Ry     beta=0.10
     Davidson diagonalization with overlap
     ethr =  1.62E-04,  avg # of iterations =  1.0

     negative rho (up, down):  0.971E-01 0.000E+00

     total cpu time spent up to now is     59.93 secs

     total energy              =     -18.71717025 Ry
     Harris-Foulkes estimate   =     -18.71976558 Ry
     estimated scf accuracy    <       0.00580098 Ry

     iteration #  7     ecut=    25.00 Ry     beta=0.10
     Davidson diagonalization with overlap
     ethr =  1.16E-04,  avg # of iterations =  1.0

     negative rho (up, down):  0.842E-01 0.000E+00

     total cpu time spent up to now is     69.84 secs

     total energy              =     -18.71852642 Ry
     Harris-Foulkes estimate   =     -18.71759514 Ry
     estimated scf accuracy    <       0.00182028 Ry

     iteration #  8     ecut=    25.00 Ry     beta=0.10
     Davidson diagonalization with overlap
     ethr =  3.64E-05,  avg # of iterations = 18.0

     negative rho (up, down):  0.410E-01 0.000E+00

     total cpu time spent up to now is     83.48 secs

     total energy              =     -18.70834533 Ry
     Harris-Foulkes estimate   =     -18.72503816 Ry
     estimated scf accuracy    <       0.02488687 Ry

     iteration #  9     ecut=    25.00 Ry     beta=0.10
     Davidson diagonalization with overlap
     ethr =  3.64E-05,  avg # of iterations =  3.0

     negative rho (up, down):  0.255E-01 0.000E+00

     total cpu time spent up to now is    100.38 secs

     total energy              =     -18.71725024 Ry
     Harris-Foulkes estimate   =     -18.71858519 Ry
     estimated scf accuracy    <       0.00745505 Ry

     iteration # 10     ecut=    25.00 Ry     beta=0.10
     Davidson diagonalization with overlap
     ethr =  3.64E-05,  avg # of iterations =  1.0

     negative rho (up, down):  0.102E-01 0.000E+00

     total cpu time spent up to now is    113.44 secs

     total energy              =     -18.71461570 Ry
     Harris-Foulkes estimate   =     -18.71729429 Ry
     estimated scf accuracy    <       0.00541820 Ry

     iteration # 11     ecut=    25.00 Ry     beta=0.10
     Davidson diagonalization with overlap
     ethr =  3.64E-05,  avg # of iterations =  2.0

     negative rho (up, down):  0.108E-01 0.000E+00

     total cpu time spent up to now is    128.16 secs

     total energy              =     -18.71549986 Ry
     Harris-Foulkes estimate   =     -18.71550047 Ry
     estimated scf accuracy    <       0.00005213 Ry

     iteration # 12     ecut=    25.00 Ry     beta=0.10
     Davidson diagonalization with overlap
     ethr =  1.04E-06,  avg # of iterations =  8.0

     negative rho (up, down):  0.125E-01 0.000E+00

     total cpu time spent up to now is    145.54 secs

     total energy              =     -18.71551549 Ry
     Harris-Foulkes estimate   =     -18.71550436 Ry
     estimated scf accuracy    <       0.00006575 Ry

     iteration # 13     ecut=    25.00 Ry     beta=0.10
     Davidson diagonalization with overlap
     ethr =  1.04E-06,  avg # of iterations =  4.0

     negative rho (up, down):  0.673E-02 0.000E+00

     total cpu time spent up to now is    164.84 secs

     total energy              =     -18.71548679 Ry
     Harris-Foulkes estimate   =     -18.71551607 Ry
     estimated scf accuracy    <       0.00012090 Ry

     iteration # 14     ecut=    25.00 Ry     beta=0.10
     Davidson diagonalization with overlap
     ethr =  1.04E-06,  avg # of iterations =  6.0

     negative rho (up, down):  0.713E-02 0.000E+00

     total cpu time spent up to now is    186.41 secs

     total energy              =     -18.71547549 Ry
     Harris-Foulkes estimate   =     -18.71549518 Ry
     estimated scf accuracy    <       0.00000718 Ry

     iteration # 15     ecut=    25.00 Ry     beta=0.10
     Davidson diagonalization with overlap
     ethr =  1.44E-07,  avg # of iterations =  2.0

     negative rho (up, down):  0.757E-02 0.000E+00

     total cpu time spent up to now is    199.96 secs

     total energy              =     -18.71546779 Ry
     Harris-Foulkes estimate   =     -18.71547625 Ry
     estimated scf accuracy    <       0.00000749 Ry

     iteration # 16     ecut=    25.00 Ry     beta=0.10
     Davidson diagonalization with overlap
     ethr =  1.44E-07,  avg # of iterations =  1.0

     negative rho (up, down):  0.792E-02 0.000E+00

     total cpu time spent up to now is    217.39 secs

     total energy              =     -18.71546463 Ry
     Harris-Foulkes estimate   =     -18.71546782 Ry
     estimated scf accuracy    <       0.00000524 Ry

     iteration # 17     ecut=    25.00 Ry     beta=0.10
     Davidson diagonalization with overlap
     ethr =  1.05E-07,  avg # of iterations =  1.0

     negative rho (up, down):  0.848E-02 0.000E+00

     total cpu time spent up to now is    229.72 secs

     total energy              =     -18.71546237 Ry
     Harris-Foulkes estimate   =     -18.71546478 Ry
     estimated scf accuracy    <       0.00000697 Ry

     iteration # 18     ecut=    25.00 Ry     beta=0.10
     Davidson diagonalization with overlap
     ethr =  1.05E-07,  avg # of iterations =  1.0

     negative rho (up, down):  0.872E-02 0.000E+00

     total cpu time spent up to now is    244.30 secs

     total energy              =     -18.71546657 Ry
     Harris-Foulkes estimate   =     -18.71546265 Ry
     estimated scf accuracy    <       0.00000156 Ry

     iteration # 19     ecut=    25.00 Ry     beta=0.10
     Davidson diagonalization with overlap
     ethr =  3.13E-08,  avg # of iterations =  2.0

     negative rho (up, down):  0.903E-02 0.000E+00

     total cpu time spent up to now is    258.03 secs

     total energy              =     -18.71546944 Ry
     Harris-Foulkes estimate   =     -18.71546677 Ry
     estimated scf accuracy    <       0.00000029 Ry

     iteration # 20     ecut=    25.00 Ry     beta=0.10
     Davidson diagonalization with overlap
     ethr =  5.78E-09,  avg # of iterations =  2.0

     negative rho (up, down):  0.928E-02 0.000E+00

     total cpu time spent up to now is    271.68 secs

     total energy              =     -18.71547133 Ry
     Harris-Foulkes estimate   =     -18.71546950 Ry
     estimated scf accuracy    <       0.00000086 Ry

     iteration # 21     ecut=    25.00 Ry     beta=0.10
     Davidson diagonalization with overlap
     ethr =  5.78E-09,  avg # of iterations =  1.0

     negative rho (up, down):  0.954E-02 0.000E+00

     total cpu time spent up to now is    286.37 secs

     total energy              =     -18.71547301 Ry
     Harris-Foulkes estimate   =     -18.71547136 Ry
     estimated scf accuracy    <       0.00000004 Ry

     iteration # 22     ecut=    25.00 Ry     beta=0.10
     Davidson diagonalization with overlap
     ethr =  7.47E-10,  avg # of iterations =  2.0

     negative rho (up, down):  0.974E-02 0.000E+00

     total cpu time spent up to now is    301.96 secs

     total energy              =     -18.71547377 Ry
     Harris-Foulkes estimate   =     -18.71547304 Ry
     estimated scf accuracy    <       0.00000050 Ry

     iteration # 23     ecut=    25.00 Ry     beta=0.10
     Davidson diagonalization with overlap
     ethr =  7.47E-10,  avg # of iterations =  2.0

     negative rho (up, down):  0.117E-01 0.000E+00

     total cpu time spent up to now is    304.49 secs

     End of self-consistent calculation

          k = 0.0000 0.0000 0.0000 ( 30529 PWs)   bands (ev):

   -16.3007  -7.5432  -7.5432  -7.5431  -0.5208   0.1377

     the Fermi energy is    -7.5431 ev

!    total energy              =     -18.71547778 Ry
     Harris-Foulkes estimate   =     -18.71547379 Ry
     estimated scf accuracy    <          3.4E-09 Ry

     The total energy is the sum of the following terms:

     one-electron contribution =     -24.77274611 Ry
     hartree contribution      =      13.15968746 Ry
     xc contribution           =      -4.33205392 Ry
     ewald contribution        =      -2.76246334 Ry
     smearing contrib. (-TS)   =      -0.00790187 Ry

     convergence has been achieved in  23 iterations
 forces --- starting time for forces:
     forces       :      0.00s CPU      0.00s WALL (       1 calls)

     Forces acting on atoms (Ry/au):

 forces --- nonlocal contribution:
     forces       :      0.61s CPU      0.65s WALL (       2 calls)
 forces --- local contribution:
     forces       :      0.67s CPU      0.71s WALL (       3 calls)
 forces --- NLCC contribution:
     forces       :      0.67s CPU      0.71s WALL (       4 calls)
 forces --- Hubbard contribution:
     forces       :      0.67s CPU      0.71s WALL (       5 calls)
 forces --- ionic contribution:
     forces       :      0.69s CPU      0.73s WALL (       6 calls)
 forces --- SCF contribution:
     forces       :      1.24s CPU      1.27s WALL (       7 calls)
     atom   1 type  1   force =     0.00000000    0.00000000    0.00000000

     Total force =     0.000000     Total SCF correction =     0.000000


     entering subroutine stress ...

          total   stress  (Ry/bohr**3)                   (kbar)     P=   -0.70
  -0.00000474   0.00000000   0.00000000         -0.70      0.00      0.00
   0.00000000  -0.00000475   0.00000000          0.00     -0.70      0.00
   0.00000000   0.00000000  -0.00000482          0.00      0.00     -0.71


     Writing output data file atom.C-XCH.save
 
     init_run     :      3.06s CPU      3.24s WALL (       1 calls)
     electrons    :    297.60s CPU    301.19s WALL (       1 calls)
     forces       :      1.24s CPU      1.27s WALL (       8 calls)
     stress       :      3.71s CPU      3.83s WALL (       1 calls)

     Called by init_run:
     wfcinit      :      0.16s CPU      0.16s WALL (       1 calls)
     potinit      :      1.34s CPU      1.41s WALL (       1 calls)

     Called by electrons:
     c_bands      :     10.42s CPU     10.43s WALL (      23 calls)
     sum_band     :     14.38s CPU     15.05s WALL (      23 calls)
     v_of_rho     :     18.02s CPU     19.05s WALL (      24 calls)
     newd         :     13.13s CPU     13.76s WALL (      24 calls)
     mix_rho      :    239.92s CPU    240.36s WALL (      23 calls)

     Called by c_bands:
     init_us_2    :      0.21s CPU      0.21s WALL (      47 calls)
     cegterg      :     10.14s CPU     10.15s WALL (      23 calls)

     Called by *egterg:
     h_psi        :      9.63s CPU      9.64s WALL (      94 calls)
     s_psi        :      0.05s CPU      0.05s WALL (      94 calls)
     g_psi        :      0.05s CPU      0.05s WALL (      70 calls)
     cdiaghg      :      0.01s CPU      0.01s WALL (      93 calls)

     Called by h_psi:
     add_vuspsi   :      0.06s CPU      0.06s WALL (      94 calls)

     General routines
     calbec       :      0.09s CPU      0.09s WALL (     119 calls)
     fft          :     16.63s CPU     17.01s WALL (     388 calls)
     ffts         :    134.40s CPU    134.42s WALL (    9415 calls)
     fftw         :     10.15s CPU     10.16s WALL (     914 calls)
     interpolate  :      3.02s CPU      3.33s WALL (      47 calls)
     davcio       :      0.00s CPU      0.04s WALL (      24 calls)
 
     Parallel routines
 
     PWSCF        :  5m 5.78s CPU     5m 9.96s WALL

 
   This run was terminated on:  16:51:57   5Sep2018            

=------------------------------------------------------------------------------=
   JOB DONE.
=------------------------------------------------------------------------------=
