
     Program PWSCF v.4.3        starts on 11Sep2018 at 11:34:48 

     This program is part of the open-source Quantum ESPRESSO suite
     for quantum simulation of materials; please cite
         "P. Giannozzi et al., J. Phys.:Condens. Matter 21 395502 (2009);
          URL http://www.quantum-espresso.org", 
     in publications or presentations arising from this work. More details at
     http://www.quantum-espresso.org/wiki/index.php/Citing_Quantum-ESPRESSO

     Parallel version (MPI), running on     1 processors

     Current dimensions of program PWSCF are:
     Max number of different atomic species (ntypx) = **
     Max number of k-points (npk) =  40000
     Max angular momentum in pseudopotentials (lmaxx) =  3
     Waiting for input...

     Subspace diagonalization in iterative solution of the eigenvalue problem:
     a serial algorithm will be used

 
   Stick Mesh
   ----------
   nst = 10457,  nstw =  1155, nsts =  4177
               n.st   n.stw   n.sts    n.g    n.gw   n.gs
   min       10457    1155    4177  635163   23329  160693
   max       10457    1155    4177  635163   23329  160693
      10457    1155    4177  635163   23329  160693
 


     bravais-lattice index     =           14
     lattice parameter (a_0)   =      21.7375  a.u.
     unit-cell volume          =    7238.1051 (a.u.)^3
     number of atoms/cell      =            1
     number of atomic types    =            1
     number of electrons       =         6.00
     number of Kohn-Sham states=            7
     kinetic-energy cutoff     =      30.0000  Ry
     charge density cutoff     =     300.0000  Ry
     convergence threshold     =      1.0E-08
     mixing beta               =       0.1000
     number of iterations used =            8  local-TF  mixing
     Exchange-correlation      =  SLA  PW   PBE  PBE (1434)
     EXX-fraction              =        0.00

     celldm(1)=  21.737520  celldm(2)=   0.927671  celldm(3)=   0.759628
     celldm(4)=   0.000000  celldm(5)=   0.000000  celldm(6)=   0.000000

     crystal axes: (cart. coord. in units of a_0)
               a(1) = (   1.000000   0.000000   0.000000 )  
               a(2) = (   0.000000   0.927671   0.000000 )  
               a(3) = (   0.000000   0.000000   0.759628 )  

     reciprocal axes: (cart. coord. in units 2 pi/a_0)
               b(1) = (  1.000000  0.000000  0.000000 )  
               b(2) = (  0.000000  1.077968  0.000000 )  
               b(3) = (  0.000000  0.000000  1.316434 )  


     PseudoPot. # 1 for O  read from file O.pbe-van_bm.UPF
     MD5 check sum: ca2828d9fb1f294809e918903b7648d1
     Pseudo is Ultrasoft, Zval =  6.0
     Generated by new atomic code, or converted to UPF format
     Using radial grid of  737 points,  4 beta functions with: 
                l(1) =   0
                l(2) =   0
                l(3) =   1
                l(4) =   1
     Q(r) pseudized with  8 coefficients,  rinner =    0.800   0.800   0.800


     atomic species   valence    mass     pseudopotential
        O              6.00    15.99900     O ( 1.00)

      8 Sym.Ops. (with inversion)


   Cartesian axes

     site n.     atom                  positions (a_0 units)
         1           O   tau(  1) = (   0.0000000   0.0000000   0.0000000  )

     number of k points=     8  Fermi-Dirac smearing, width (Ry)=  0.0019
                       cart. coord. in units 2pi/a_0
        k(    1) = (   0.0000000   0.0000000   0.0000000), wk =   0.2500000
        k(    2) = (   0.0000000   0.0000000  -0.6582170), wk =   0.2500000
        k(    3) = (   0.0000000  -0.5389842   0.0000000), wk =   0.2500000
        k(    4) = (   0.0000000  -0.5389842  -0.6582170), wk =   0.2500000
        k(    5) = (  -0.5000000   0.0000000   0.0000000), wk =   0.2500000
        k(    6) = (  -0.5000000   0.0000000  -0.6582170), wk =   0.2500000
        k(    7) = (  -0.5000000  -0.5389842   0.0000000), wk =   0.2500000
        k(    8) = (  -0.5000000  -0.5389842  -0.6582170), wk =   0.2500000

     G cutoff = 3590.7196  ( 635163 G-vectors)     FFT grid: (120,120, 96)
     G cutoff = 1436.2879  ( 160693 G-vectors)  smooth grid: ( 75, 72, 60)

     Largest allocated arrays     est. size (Mb)     dimensions
        Kohn-Sham Wavefunctions         2.15 Mb     (  20140,   7)
        NL pseudopotentials             2.46 Mb     (  20140,   8)
        Each V/rho on FFT grid         21.09 Mb     (1382400)
        Each G-vector array             4.85 Mb     ( 635163)
        G-vector shells                 0.63 Mb     (  82808)
     Largest temporary arrays     est. size (Mb)     dimensions
        Auxiliary wavefunctions         8.60 Mb     (  20140,  28)
        Each subspace H/S matrix        0.01 Mb     (     28,  28)
        Each <psi_i|beta_j> matrix      0.00 Mb     (      8,   7)
        Arrays for rho mixing         168.75 Mb     (1382400,   8)

     Initial potential from superposition of free atoms
     Check: negative starting charge=   -0.012253

     starting charge    6.00000, renormalised to    6.00000

     negative rho (up, down):  0.123E-01 0.000E+00
     Starting wfc are    4 atomic +    3 random wfc

     total cpu time spent up to now is      4.29 secs

     per-process dynamical memory:   319.6 Mb

     Self-consistent Calculation

     iteration #  1     ecut=    30.00 Ry     beta=0.10
     Davidson diagonalization with overlap
     ethr =  1.00E-02,  avg # of iterations =  6.4

     Threshold (ethr) on eigenvalues was too large:
     Diagonalizing with lowered threshold

     Davidson diagonalization with overlap
     c_bands:  1 eigenvalues not converged
     c_bands:  1 eigenvalues not converged
     c_bands:  1 eigenvalues not converged
     ethr =  3.50E-06,  avg # of iterations = 18.1

     negative rho (up, down):  0.917E-02 0.000E+00

     total cpu time spent up to now is     28.15 secs

     total energy              =     -31.54445332 Ry
     Harris-Foulkes estimate   =     -31.54420228 Ry
     estimated scf accuracy    <       0.00046275 Ry

     iteration #  2     ecut=    30.00 Ry     beta=0.10
     Davidson diagonalization with overlap
     ethr =  7.71E-06,  avg # of iterations =  1.0

     negative rho (up, down):  0.224E-01 0.000E+00

     total cpu time spent up to now is     39.79 secs

     total energy              =     -31.54445534 Ry
     Harris-Foulkes estimate   =     -31.54445487 Ry
     estimated scf accuracy    <       0.00038307 Ry

     iteration #  3     ecut=    30.00 Ry     beta=0.10
     Davidson diagonalization with overlap
     ethr =  6.38E-06,  avg # of iterations =  3.0

     negative rho (up, down):  0.215E-01 0.000E+00

     total cpu time spent up to now is     50.27 secs

     total energy              =     -31.54440855 Ry
     Harris-Foulkes estimate   =     -31.54450040 Ry
     estimated scf accuracy    <       0.00001264 Ry

     iteration #  4     ecut=    30.00 Ry     beta=0.10
     Davidson diagonalization with overlap
     ethr =  2.11E-07,  avg # of iterations =  1.9

     negative rho (up, down):  0.188E-01 0.000E+00

     total cpu time spent up to now is     59.82 secs

     total energy              =     -31.54435261 Ry
     Harris-Foulkes estimate   =     -31.54440949 Ry
     estimated scf accuracy    <       0.00000807 Ry

     iteration #  5     ecut=    30.00 Ry     beta=0.10
     Davidson diagonalization with overlap
     ethr =  1.34E-07,  avg # of iterations =  1.0

     negative rho (up, down):  0.155E-01 0.000E+00

     total cpu time spent up to now is     68.53 secs

     total energy              =     -31.54440363 Ry
     Harris-Foulkes estimate   =     -31.54435282 Ry
     estimated scf accuracy    <       0.00000653 Ry

     iteration #  6     ecut=    30.00 Ry     beta=0.10
     Davidson diagonalization with overlap
     ethr =  1.09E-07,  avg # of iterations =  2.2

     negative rho (up, down):  0.142E-01 0.000E+00

     total cpu time spent up to now is     78.31 secs

     total energy              =     -31.54437396 Ry
     Harris-Foulkes estimate   =     -31.54440455 Ry
     estimated scf accuracy    <       0.00000460 Ry

     iteration #  7     ecut=    30.00 Ry     beta=0.10
     Davidson diagonalization with overlap
     ethr =  7.67E-08,  avg # of iterations =  1.0

     negative rho (up, down):  0.133E-01 0.000E+00

     total cpu time spent up to now is     87.84 secs

     total energy              =     -31.54428928 Ry
     Harris-Foulkes estimate   =     -31.54437400 Ry
     estimated scf accuracy    <       0.00000386 Ry

     iteration #  8     ecut=    30.00 Ry     beta=0.10
     Davidson diagonalization with overlap
     ethr =  6.43E-08,  avg # of iterations =  1.0

     negative rho (up, down):  0.143E-01 0.000E+00

     total cpu time spent up to now is     97.85 secs

     total energy              =     -31.54424972 Ry
     Harris-Foulkes estimate   =     -31.54428931 Ry
     estimated scf accuracy    <       0.00000317 Ry

     iteration #  9     ecut=    30.00 Ry     beta=0.10
     Davidson diagonalization with overlap
     ethr =  5.29E-08,  avg # of iterations =  3.0

     negative rho (up, down):  0.118E-01 0.000E+00

     total cpu time spent up to now is    113.64 secs

     total energy              =     -31.54413693 Ry
     Harris-Foulkes estimate   =     -31.54425554 Ry
     estimated scf accuracy    <       0.00002368 Ry

     iteration # 10     ecut=    30.00 Ry     beta=0.10
     Davidson diagonalization with overlap
     ethr =  5.29E-08,  avg # of iterations =  2.0

     negative rho (up, down):  0.115E-01 0.000E+00

     total cpu time spent up to now is    129.23 secs

     total energy              =     -31.54406192 Ry
     Harris-Foulkes estimate   =     -31.54413812 Ry
     estimated scf accuracy    <       0.00004929 Ry

     iteration # 11     ecut=    30.00 Ry     beta=0.10
     Davidson diagonalization with overlap
     ethr =  5.29E-08,  avg # of iterations =  2.0

     negative rho (up, down):  0.115E-01 0.000E+00

     total cpu time spent up to now is    139.13 secs

     total energy              =     -31.54398224 Ry
     Harris-Foulkes estimate   =     -31.54406302 Ry
     estimated scf accuracy    <       0.00001739 Ry

     iteration # 12     ecut=    30.00 Ry     beta=0.10
     Davidson diagonalization with overlap
     ethr =  5.29E-08,  avg # of iterations =  2.0

     negative rho (up, down):  0.120E-01 0.000E+00

     total cpu time spent up to now is    150.62 secs

     total energy              =     -31.54395217 Ry
     Harris-Foulkes estimate   =     -31.54398302 Ry
     estimated scf accuracy    <       0.00000615 Ry

     iteration # 13     ecut=    30.00 Ry     beta=0.10
     Davidson diagonalization with overlap
     ethr =  5.29E-08,  avg # of iterations =  2.0

     negative rho (up, down):  0.120E-01 0.000E+00

     total cpu time spent up to now is    160.21 secs

     total energy              =     -31.54397507 Ry
     Harris-Foulkes estimate   =     -31.54395284 Ry
     estimated scf accuracy    <       0.00000027 Ry

     iteration # 14     ecut=    30.00 Ry     beta=0.10
     Davidson diagonalization with overlap
     ethr =  4.42E-09,  avg # of iterations =  2.0

     negative rho (up, down):  0.123E-01 0.000E+00

     total cpu time spent up to now is    174.04 secs

     total energy              =     -31.54402758 Ry
     Harris-Foulkes estimate   =     -31.54397516 Ry
     estimated scf accuracy    <       0.00000132 Ry

     iteration # 15     ecut=    30.00 Ry     beta=0.10
     Davidson diagonalization with overlap
     ethr =  4.42E-09,  avg # of iterations =  2.0

     negative rho (up, down):  0.127E-01 0.000E+00

     total cpu time spent up to now is    186.40 secs

     total energy              =     -31.54404003 Ry
     Harris-Foulkes estimate   =     -31.54402780 Ry
     estimated scf accuracy    <       0.00000004 Ry

     iteration # 16     ecut=    30.00 Ry     beta=0.10
     Davidson diagonalization with overlap
     ethr =  6.05E-10,  avg # of iterations =  2.0

     negative rho (up, down):  0.184E-01 0.000E+00

     total cpu time spent up to now is    191.07 secs

     End of self-consistent calculation

          k = 0.0000 0.0000 0.0000 ( 20075 PWs)   bands (ev):

   -23.9484  -8.9139  -8.9139  -8.9138  -0.7267   0.4131   0.4474

          k = 0.0000 0.0000-0.6582 ( 20036 PWs)   bands (ev):

   -23.9484  -8.9139  -8.9138  -8.9138  -0.2983  -0.1517   0.8803

          k = 0.0000-0.5390 0.0000 ( 20100 PWs)   bands (ev):

   -23.9484  -8.9139  -8.9139  -8.9138  -0.4760  -0.2923   0.7109

          k = 0.0000-0.5390-0.6582 ( 20040 PWs)   bands (ev):

   -23.9484  -8.9139  -8.9138  -8.9138  -0.0647   0.1309   0.1702

          k =-0.5000 0.0000 0.0000 ( 20098 PWs)   bands (ev):

   -23.9484  -8.9139  -8.9139  -8.9138  -0.5250  -0.3306   0.8334

          k =-0.5000 0.0000-0.6582 ( 20124 PWs)   bands (ev):

   -23.9484  -8.9140  -8.9139  -8.9139  -0.1134   0.0812   0.1335

          k =-0.5000-0.5390 0.0000 ( 20140 PWs)   bands (ev):

   -23.9484  -8.9140  -8.9139  -8.9138  -0.2951  -0.0496  -0.0362

          k =-0.5000-0.5390-0.6582 ( 20080 PWs)   bands (ev):

   -23.9484  -8.9139  -8.9139  -8.9139   0.1015   0.3451   0.4049

     the Fermi energy is    -8.8960 ev

!    total energy              =     -31.54400077 Ry
     Harris-Foulkes estimate   =     -31.54404005 Ry
     estimated scf accuracy    <          2.9E-09 Ry

     The total energy is the sum of the following terms:

     one-electron contribution =     -42.03559589 Ry
     hartree contribution      =      22.13657588 Ry
     xc contribution           =      -6.46661472 Ry
     ewald contribution        =      -5.17110978 Ry
     smearing contrib. (-TS)   =      -0.00725625 Ry

     convergence has been achieved in  16 iterations
 forces --- starting time for forces:
     forces       :      0.00s CPU      0.00s WALL (       1 calls)

     Forces acting on atoms (Ry/au):

 forces --- nonlocal contribution:
     forces       :      0.61s CPU      0.65s WALL (       2 calls)
 forces --- local contribution:
     forces       :      0.66s CPU      0.71s WALL (       3 calls)
 forces --- NLCC contribution:
     forces       :      0.66s CPU      0.71s WALL (       4 calls)
 forces --- Hubbard contribution:
     forces       :      0.66s CPU      0.71s WALL (       5 calls)
 forces --- ionic contribution:
     forces       :      0.67s CPU      0.72s WALL (       6 calls)
 forces --- SCF contribution:
     forces       :      1.21s CPU      1.25s WALL (       7 calls)
     atom   1 type  1   force =     0.00000000    0.00000000    0.00000000

     Total force =     0.000000     Total SCF correction =     0.000000


     entering subroutine stress ...

          total   stress  (Ry/bohr**3)                   (kbar)     P=   -0.18
  -0.00000126   0.00000000   0.00000000         -0.18      0.00      0.00
   0.00000000  -0.00000125   0.00000000          0.00     -0.18      0.00
   0.00000000   0.00000000  -0.00000125          0.00      0.00     -0.18


     Writing output data file atom.O-GS.save
 
     init_run     :      4.03s CPU      4.19s WALL (       1 calls)
     electrons    :    184.78s CPU    186.77s WALL (       1 calls)
     forces       :      1.21s CPU      1.25s WALL (       8 calls)
     stress       :      3.71s CPU      3.86s WALL (       1 calls)

     Called by init_run:
     wfcinit      :      0.93s CPU      0.94s WALL (       1 calls)
     potinit      :      1.48s CPU      1.54s WALL (       1 calls)

     Called by electrons:
     c_bands      :     46.23s CPU     46.47s WALL (      17 calls)
     sum_band     :     16.97s CPU     17.31s WALL (      17 calls)
     v_of_rho     :     12.59s CPU     13.18s WALL (      17 calls)
     newd         :      8.59s CPU      8.83s WALL (      17 calls)
     mix_rho      :     99.73s CPU     99.94s WALL (      17 calls)

     Called by c_bands:
     init_us_2    :      0.84s CPU      0.89s WALL (     296 calls)
     cegterg      :     45.14s CPU     45.19s WALL (     136 calls)

     Called by *egterg:
     h_psi        :     42.89s CPU     42.91s WALL (     565 calls)
     s_psi        :      0.25s CPU      0.25s WALL (     565 calls)
     g_psi        :      0.26s CPU      0.26s WALL (     421 calls)
     cdiaghg      :      0.08s CPU      0.10s WALL (     549 calls)

     Called by h_psi:
     add_vuspsi   :      0.26s CPU      0.26s WALL (     565 calls)

     General routines
     calbec       :      0.40s CPU      0.40s WALL (     717 calls)
     fft          :     10.26s CPU     10.49s WALL (     280 calls)
     ffts         :     52.68s CPU     52.71s WALL (    6139 calls)
     fftw         :     44.36s CPU     44.38s WALL (    6452 calls)
     interpolate  :      1.77s CPU      1.78s WALL (      34 calls)
     davcio       :      0.08s CPU      0.27s WALL (     440 calls)
 
     Parallel routines
 
     PWSCF        :  3m14.17s CPU     3m16.85s WALL

 
   This run was terminated on:  11:38: 5  11Sep2018            

=------------------------------------------------------------------------------=
   JOB DONE.
=------------------------------------------------------------------------------=
