
     Program PWSCF v.4.3        starts on 11Sep2018 at 11:38: 7 

     This program is part of the open-source Quantum ESPRESSO suite
     for quantum simulation of materials; please cite
         "P. Giannozzi et al., J. Phys.:Condens. Matter 21 395502 (2009);
          URL http://www.quantum-espresso.org", 
     in publications or presentations arising from this work. More details at
     http://www.quantum-espresso.org/wiki/index.php/Citing_Quantum-ESPRESSO

     Parallel version (MPI), running on     1 processors

     Current dimensions of program PWSCF are:
     Max number of different atomic species (ntypx) = **
     Max number of k-points (npk) =  40000
     Max angular momentum in pseudopotentials (lmaxx) =  3
     Waiting for input...

     Subspace diagonalization in iterative solution of the eigenvalue problem:
     a serial algorithm will be used

 
   Stick Mesh
   ----------
   nst = 10457,  nstw =  1155, nsts =  4177
               n.st   n.stw   n.sts    n.g    n.gw   n.gs
   min       10457    1155    4177  635163   23329  160693
   max       10457    1155    4177  635163   23329  160693
      10457    1155    4177  635163   23329  160693
 


     bravais-lattice index     =           14
     lattice parameter (a_0)   =      21.7375  a.u.
     unit-cell volume          =    7238.1051 (a.u.)^3
     number of atoms/cell      =            1
     number of atomic types    =            1
     number of electrons       =         7.00
     number of Kohn-Sham states=            7
     kinetic-energy cutoff     =      30.0000  Ry
     charge density cutoff     =     300.0000  Ry
     convergence threshold     =      1.0E-08
     mixing beta               =       0.1000
     number of iterations used =            8  local-TF  mixing
     Exchange-correlation      = SLA  PW   PBE  PBE (1434)
     EXX-fraction              =        0.00

     celldm(1)=  21.737520  celldm(2)=   0.927671  celldm(3)=   0.759628
     celldm(4)=   0.000000  celldm(5)=   0.000000  celldm(6)=   0.000000

     crystal axes: (cart. coord. in units of a_0)
               a(1) = (   1.000000   0.000000   0.000000 )  
               a(2) = (   0.000000   0.927671   0.000000 )  
               a(3) = (   0.000000   0.000000   0.759628 )  

     reciprocal axes: (cart. coord. in units 2 pi/a_0)
               b(1) = (  1.000000  0.000000  0.000000 )  
               b(2) = (  0.000000  1.077968  0.000000 )  
               b(3) = (  0.000000  0.000000  1.316434 )  


     PseudoPot. # 1 for ox read from file O.pbe-van-dgp-1s1.UPF
     MD5 check sum: 2083901d62884ac3a15d661bda1575b3
     Pseudo is Ultrasoft, Zval =  7.0
     Generated by new atomic code, or converted to UPF format
     Using radial grid of  737 points,  4 beta functions with: 
                l(1) =   0
                l(2) =   0
                l(3) =   1
                l(4) =   1
     Q(r) pseudized with  8 coefficients,  rinner =    0.800   0.800   0.800


     atomic species   valence    mass     pseudopotential
        OX             7.00    15.99900     ox( 1.00)

      8 Sym.Ops. (with inversion)


   Cartesian axes

     site n.     atom                  positions (a_0 units)
         1           OX  tau(  1) = (   0.0000000   0.0000000   0.0000000  )

     number of k points=     8  Fermi-Dirac smearing, width (Ry)=  0.0019
                       cart. coord. in units 2pi/a_0
        k(    1) = (   0.0000000   0.0000000   0.0000000), wk =   0.2500000
        k(    2) = (   0.0000000   0.0000000  -0.6582170), wk =   0.2500000
        k(    3) = (   0.0000000  -0.5389842   0.0000000), wk =   0.2500000
        k(    4) = (   0.0000000  -0.5389842  -0.6582170), wk =   0.2500000
        k(    5) = (  -0.5000000   0.0000000   0.0000000), wk =   0.2500000
        k(    6) = (  -0.5000000   0.0000000  -0.6582170), wk =   0.2500000
        k(    7) = (  -0.5000000  -0.5389842   0.0000000), wk =   0.2500000
        k(    8) = (  -0.5000000  -0.5389842  -0.6582170), wk =   0.2500000

     G cutoff = 3590.7196  ( 635163 G-vectors)     FFT grid: (120,120, 96)
     G cutoff = 1436.2879  ( 160693 G-vectors)  smooth grid: ( 75, 72, 60)

     Largest allocated arrays     est. size (Mb)     dimensions
        Kohn-Sham Wavefunctions         2.15 Mb     (  20140,   7)
        NL pseudopotentials             2.46 Mb     (  20140,   8)
        Each V/rho on FFT grid         21.09 Mb     (1382400)
        Each G-vector array             4.85 Mb     ( 635163)
        G-vector shells                 0.63 Mb     (  82808)
     Largest temporary arrays     est. size (Mb)     dimensions
        Auxiliary wavefunctions         8.60 Mb     (  20140,  28)
        Each subspace H/S matrix        0.01 Mb     (     28,  28)
        Each <psi_i|beta_j> matrix      0.00 Mb     (      8,   7)
        Arrays for rho mixing         168.75 Mb     (1382400,   8)

     Initial potential from superposition of free atoms
     Check: negative starting charge=   -0.008723

     starting charge    6.00000, renormalised to    7.00000

     negative rho (up, down):  0.102E-01 0.000E+00
     Starting wfc are    4 atomic +    3 random wfc

     total cpu time spent up to now is      4.42 secs

     per-process dynamical memory:   319.6 Mb

     Self-consistent Calculation

     iteration #  1     ecut=    30.00 Ry     beta=0.10
     Davidson diagonalization with overlap
     ethr =  1.00E-02,  avg # of iterations =  6.8

     negative rho (up, down):  0.225E-01 0.000E+00

     total cpu time spent up to now is     20.40 secs

     total energy              =     -47.53448773 Ry
     Harris-Foulkes estimate   =     -47.60038058 Ry
     estimated scf accuracy    <       0.89622770 Ry

     iteration #  2     ecut=    30.00 Ry     beta=0.10
     Davidson diagonalization with overlap
     ethr =  1.00E-02,  avg # of iterations =  1.0

     negative rho (up, down):  0.170E+00 0.000E+00

     total cpu time spent up to now is     27.17 secs

     total energy              =     -47.17858457 Ry
     Harris-Foulkes estimate   =     -47.53691254 Ry
     estimated scf accuracy    <       0.70454947 Ry

     iteration #  3     ecut=    30.00 Ry     beta=0.10
     Davidson diagonalization with overlap
     ethr =  1.00E-02,  avg # of iterations =  2.0

     negative rho (up, down):  0.131E+00 0.000E+00

     total cpu time spent up to now is     35.22 secs

     total energy              =     -47.33018862 Ry
     Harris-Foulkes estimate   =     -47.33509631 Ry
     estimated scf accuracy    <       0.01602932 Ry

     iteration #  4     ecut=    30.00 Ry     beta=0.10
     Davidson diagonalization with overlap
     ethr =  2.29E-04,  avg # of iterations =  3.1

     negative rho (up, down):  0.113E+00 0.000E+00

     total cpu time spent up to now is     44.84 secs

     total energy              =     -47.33037138 Ry
     Harris-Foulkes estimate   =     -47.33530693 Ry
     estimated scf accuracy    <       0.01997469 Ry

     iteration #  5     ecut=    30.00 Ry     beta=0.10
     Davidson diagonalization with overlap
     ethr =  2.29E-04,  avg # of iterations =  1.0

     negative rho (up, down):  0.104E+00 0.000E+00

     total cpu time spent up to now is     53.09 secs

     total energy              =     -47.31964599 Ry
     Harris-Foulkes estimate   =     -47.33049125 Ry
     estimated scf accuracy    <       0.01254472 Ry

     iteration #  6     ecut=    30.00 Ry     beta=0.10
     Davidson diagonalization with overlap
     ethr =  1.79E-04,  avg # of iterations =  2.0

     negative rho (up, down):  0.766E-01 0.000E+00

     total cpu time spent up to now is     64.70 secs

     total energy              =     -47.32395294 Ry
     Harris-Foulkes estimate   =     -47.32459916 Ry
     estimated scf accuracy    <       0.00614411 Ry

     iteration #  7     ecut=    30.00 Ry     beta=0.10
     Davidson diagonalization with overlap
     ethr =  8.78E-05,  avg # of iterations =  1.0

     negative rho (up, down):  0.667E-01 0.000E+00

     total cpu time spent up to now is     76.29 secs

     total energy              =     -47.32538324 Ry
     Harris-Foulkes estimate   =     -47.32398705 Ry
     estimated scf accuracy    <       0.00467597 Ry

     iteration #  8     ecut=    30.00 Ry     beta=0.10
     Davidson diagonalization with overlap
     ethr =  6.68E-05,  avg # of iterations =  7.2

     negative rho (up, down):  0.246E-01 0.000E+00

     total cpu time spent up to now is     91.37 secs

     total energy              =     -47.31911878 Ry
     Harris-Foulkes estimate   =     -47.32577583 Ry
     estimated scf accuracy    <       0.01177896 Ry

     iteration #  9     ecut=    30.00 Ry     beta=0.10
     Davidson diagonalization with overlap
     ethr =  6.68E-05,  avg # of iterations =  2.4

     negative rho (up, down):  0.906E-02 0.000E+00

     total cpu time spent up to now is    104.41 secs

     total energy              =     -47.32127367 Ry
     Harris-Foulkes estimate   =     -47.32127096 Ry
     estimated scf accuracy    <       0.00031865 Ry

     iteration # 10     ecut=    30.00 Ry     beta=0.10
     Davidson diagonalization with overlap
     ethr =  4.55E-06,  avg # of iterations = 10.9

     negative rho (up, down):  0.930E-02 0.000E+00

     total cpu time spent up to now is    120.85 secs

     total energy              =     -47.32122626 Ry
     Harris-Foulkes estimate   =     -47.32131832 Ry
     estimated scf accuracy    <       0.00069694 Ry

     iteration # 11     ecut=    30.00 Ry     beta=0.10
     Davidson diagonalization with overlap
     ethr =  4.55E-06,  avg # of iterations =  8.1

     negative rho (up, down):  0.799E-02 0.000E+00

     total cpu time spent up to now is    136.74 secs

     total energy              =     -47.32124691 Ry
     Harris-Foulkes estimate   =     -47.32127556 Ry
     estimated scf accuracy    <       0.00005982 Ry

     iteration # 12     ecut=    30.00 Ry     beta=0.10
     Davidson diagonalization with overlap
     ethr =  8.55E-07,  avg # of iterations =  2.4

     negative rho (up, down):  0.636E-02 0.000E+00

     total cpu time spent up to now is    151.50 secs

     total energy              =     -47.32125177 Ry
     Harris-Foulkes estimate   =     -47.32124715 Ry
     estimated scf accuracy    <       0.00006088 Ry

     iteration # 13     ecut=    30.00 Ry     beta=0.10
     Davidson diagonalization with overlap
     ethr =  8.55E-07,  avg # of iterations =  1.4

     negative rho (up, down):  0.596E-02 0.000E+00

     total cpu time spent up to now is    163.96 secs

     total energy              =     -47.32123775 Ry
     Harris-Foulkes estimate   =     -47.32125447 Ry
     estimated scf accuracy    <       0.00015740 Ry

     iteration # 14     ecut=    30.00 Ry     beta=0.10
     Davidson diagonalization with overlap
     ethr =  8.55E-07,  avg # of iterations =  2.0

     negative rho (up, down):  0.361E-02 0.000E+00

     total cpu time spent up to now is    177.40 secs

     total energy              =     -47.32126675 Ry
     Harris-Foulkes estimate   =     -47.32125605 Ry
     estimated scf accuracy    <       0.00014901 Ry

     iteration # 15     ecut=    30.00 Ry     beta=0.10
     Davidson diagonalization with overlap
     ethr =  8.55E-07,  avg # of iterations =  3.6

     negative rho (up, down):  0.320E-02 0.000E+00

     total cpu time spent up to now is    193.38 secs

     total energy              =     -47.32127141 Ry
     Harris-Foulkes estimate   =     -47.32127113 Ry
     estimated scf accuracy    <       0.00000507 Ry

     iteration # 16     ecut=    30.00 Ry     beta=0.10
     Davidson diagonalization with overlap
     ethr =  7.24E-08,  avg # of iterations =  2.0

     negative rho (up, down):  0.290E-02 0.000E+00

     total cpu time spent up to now is    207.78 secs

     total energy              =     -47.32127107 Ry
     Harris-Foulkes estimate   =     -47.32127214 Ry
     estimated scf accuracy    <       0.00000126 Ry

     iteration # 17     ecut=    30.00 Ry     beta=0.10
     Davidson diagonalization with overlap
     ethr =  1.80E-08,  avg # of iterations =  1.0

     negative rho (up, down):  0.272E-02 0.000E+00

     total cpu time spent up to now is    227.00 secs

     total energy              =     -47.32126884 Ry
     Harris-Foulkes estimate   =     -47.32127112 Ry
     estimated scf accuracy    <       0.00000004 Ry

     iteration # 18     ecut=    30.00 Ry     beta=0.10
     Davidson diagonalization with overlap
     ethr =  5.07E-10,  avg # of iterations =  2.8

     negative rho (up, down):  0.275E-02 0.000E+00

     total cpu time spent up to now is    241.30 secs

     total energy              =     -47.32126546 Ry
     Harris-Foulkes estimate   =     -47.32126889 Ry
     estimated scf accuracy    <       0.00000045 Ry

     iteration # 19     ecut=    30.00 Ry     beta=0.10
     Davidson diagonalization with overlap
     ethr =  5.07E-10,  avg # of iterations =  2.0

     negative rho (up, down):  0.260E-02 0.000E+00

     total cpu time spent up to now is    255.11 secs

     total energy              =     -47.32126402 Ry
     Harris-Foulkes estimate   =     -47.32126547 Ry
     estimated scf accuracy    <       0.00000022 Ry

     iteration # 20     ecut=    30.00 Ry     beta=0.10
     Davidson diagonalization with overlap
     ethr =  5.07E-10,  avg # of iterations =  2.0

     negative rho (up, down):  0.243E-02 0.000E+00

     total cpu time spent up to now is    270.43 secs

     total energy              =     -47.32126203 Ry
     Harris-Foulkes estimate   =     -47.32126402 Ry
     estimated scf accuracy    <       0.00000007 Ry

     iteration # 21     ecut=    30.00 Ry     beta=0.10
     Davidson diagonalization with overlap
     ethr =  5.07E-10,  avg # of iterations =  1.0

     negative rho (up, down):  0.237E-02 0.000E+00

     total cpu time spent up to now is    274.57 secs

     End of self-consistent calculation

          k = 0.0000 0.0000 0.0000 ( 20075 PWs)   bands (ev):

   -26.4458 -11.5204 -11.5204 -11.5203  -0.4401   0.6775   0.7343

          k = 0.0000 0.0000-0.6582 ( 20036 PWs)   bands (ev):

   -26.4458 -11.5204 -11.5203 -11.5203  -0.0324   0.1485   1.1223

          k = 0.0000-0.5390 0.0000 ( 20100 PWs)   bands (ev):

   -26.4459 -11.5204 -11.5204 -11.5203  -0.2049   0.0095   0.9855

          k = 0.0000-0.5390-0.6582 ( 20040 PWs)   bands (ev):

   -26.4458 -11.5204 -11.5203 -11.5202   0.1764   0.4240   0.4667

          k =-0.5000 0.0000 0.0000 ( 20098 PWs)   bands (ev):

   -26.4459 -11.5204 -11.5203 -11.5203  -0.2513  -0.0293   1.0997

          k =-0.5000 0.0000-0.6582 ( 20124 PWs)   bands (ev):

   -26.4459 -11.5205 -11.5205 -11.5204   0.1309   0.3768   0.4306

          k =-0.5000-0.5390 0.0000 ( 20140 PWs)   bands (ev):

   -26.4459 -11.5205 -11.5204 -11.5203  -0.0431   0.2634   0.3393

          k =-0.5000-0.5390-0.6582 ( 20080 PWs)   bands (ev):

   -26.4459 -11.5205 -11.5203 -11.5203   0.3150   0.6275   0.6923

     the Fermi energy is   -11.4788 ev

!    total energy              =     -47.32125616 Ry
     Harris-Foulkes estimate   =     -47.32126204 Ry
     estimated scf accuracy    <          5.8E-09 Ry

     The total energy is the sum of the following terms:

     one-electron contribution =     -66.22939660 Ry
     hartree contribution      =      34.78280922 Ry
     xc contribution           =      -8.83107741 Ry
     ewald contribution        =      -7.03845498 Ry
     smearing contrib. (-TS)   =      -0.00513639 Ry

     convergence has been achieved in  21 iterations
 forces --- starting time for forces:
     forces       :      0.00s CPU      0.00s WALL (       1 calls)

     Forces acting on atoms (Ry/au):

 forces --- nonlocal contribution:
     forces       :      0.60s CPU      0.64s WALL (       2 calls)
 forces --- local contribution:
     forces       :      0.65s CPU      0.70s WALL (       3 calls)
 forces --- NLCC contribution:
     forces       :      0.65s CPU      0.70s WALL (       4 calls)
 forces --- Hubbard contribution:
     forces       :      0.65s CPU      0.70s WALL (       5 calls)
 forces --- ionic contribution:
     forces       :      0.67s CPU      0.71s WALL (       6 calls)
 forces --- SCF contribution:
     forces       :      1.18s CPU      1.22s WALL (       7 calls)
     atom   1 type  1   force =     0.00000000    0.00000000    0.00000000

     Total force =     0.000000     Total SCF correction =     0.000000


     entering subroutine stress ...

          total   stress  (Ry/bohr**3)                   (kbar)     P=   -0.26
  -0.00000177   0.00000000   0.00000000         -0.26      0.00      0.00
   0.00000000  -0.00000179   0.00000000          0.00     -0.26      0.00
   0.00000000   0.00000000  -0.00000174          0.00      0.00     -0.26


     Writing output data file atom.O-FCH.save
 
     init_run     :      4.21s CPU      4.36s WALL (       1 calls)
     electrons    :    267.49s CPU    270.15s WALL (       1 calls)
     forces       :      1.18s CPU      1.22s WALL (       8 calls)
     stress       :      3.61s CPU      3.74s WALL (       1 calls)

     Called by init_run:
     wfcinit      :      1.13s CPU      1.15s WALL (       1 calls)
     potinit      :      1.46s CPU      1.52s WALL (       1 calls)

     Called by electrons:
     c_bands      :     54.39s CPU     54.66s WALL (      21 calls)
     sum_band     :     21.49s CPU     21.89s WALL (      21 calls)
     v_of_rho     :     15.19s CPU     15.98s WALL (      22 calls)
     newd         :     12.01s CPU     12.37s WALL (      22 calls)
     mix_rho      :    162.70s CPU    163.01s WALL (      21 calls)

     Called by c_bands:
     init_us_2    :      1.03s CPU      1.11s WALL (     360 calls)
     cegterg      :     53.03s CPU     53.06s WALL (     168 calls)

     Called by *egterg:
     h_psi        :     50.40s CPU     50.42s WALL (     701 calls)
     s_psi        :      0.28s CPU      0.28s WALL (     701 calls)
     g_psi        :      0.29s CPU      0.29s WALL (     525 calls)
     cdiaghg      :      0.10s CPU      0.10s WALL (     693 calls)

     Called by h_psi:
     add_vuspsi   :      0.30s CPU      0.30s WALL (     701 calls)

     General routines
     calbec       :      0.50s CPU      0.50s WALL (     885 calls)
     fft          :     13.36s CPU     13.66s WALL (     356 calls)
     ffts         :     85.47s CPU     85.52s WALL (    9775 calls)
     fftw         :     52.83s CPU     52.85s WALL (    7618 calls)
     interpolate  :      2.44s CPU      2.46s WALL (      43 calls)
     davcio       :      0.10s CPU      0.34s WALL (     536 calls)
 
     Parallel routines
 
     PWSCF        :  4m36.93s CPU     4m40.52s WALL

 
   This run was terminated on:  11:42:47  11Sep2018            

=------------------------------------------------------------------------------=
   JOB DONE.
=------------------------------------------------------------------------------=
