
     Program PWSCF v.4.3        starts on 10Sep2018 at 23:30: 7 

     This program is part of the open-source Quantum ESPRESSO suite
     for quantum simulation of materials; please cite
         "P. Giannozzi et al., J. Phys.:Condens. Matter 21 395502 (2009);
          URL http://www.quantum-espresso.org", 
     in publications or presentations arising from this work. More details at
     http://www.quantum-espresso.org/wiki/index.php/Citing_Quantum-ESPRESSO

     Parallel version (MPI), running on    64 processors
     R & G space division:  proc/pool =   64

     Current dimensions of program PWSCF are:
     Max number of different atomic species (ntypx) = **
     Max number of k-points (npk) =  40000
     Max angular momentum in pseudopotentials (lmaxx) =  3
     Waiting for input...

     Subspace diagonalization in iterative solution of the eigenvalue problem:
     parallel, distributed-memory algorithm (size of sub-group:  5*  5 procs)

 
   Stick Mesh
   ----------
   nst = 10457,  nstw =  1155, nsts =  4177
               n.st   n.stw   n.sts    n.g    n.gw   n.gs
   min         163      18      65    9923     362    2501
   max         164      19      66    9926     366    2528
      10457    1155    4177  635163   23329  160693
 


     bravais-lattice index     =           14
     lattice parameter (a_0)   =      21.7375  a.u.
     unit-cell volume          =    7238.1051 (a.u.)^3
     number of atoms/cell      =           84
     number of atomic types    =            3
     number of electrons       =       672.00
     number of Kohn-Sham states=          403
     kinetic-energy cutoff     =      30.0000  Ry
     charge density cutoff     =     300.0000  Ry
     convergence threshold     =      1.0E-08
     mixing beta               =       0.3000
     number of iterations used =            8  local-TF  mixing
     Exchange-correlation      = SLA  PW   PBE  PBE (1434)
     EXX-fraction              =        0.00

     celldm(1)=  21.737520  celldm(2)=   0.927671  celldm(3)=   0.759628
     celldm(4)=   0.000000  celldm(5)=   0.000000  celldm(6)=   0.000000

     crystal axes: (cart. coord. in units of a_0)
               a(1) = (   1.000000   0.000000   0.000000 )  
               a(2) = (   0.000000   0.927671   0.000000 )  
               a(3) = (   0.000000   0.000000   0.759628 )  

     reciprocal axes: (cart. coord. in units 2 pi/a_0)
               b(1) = (  1.000000  0.000000  0.000000 )  
               b(2) = (  0.000000  1.077968  0.000000 )  
               b(3) = (  0.000000  0.000000  1.316434 )  


     PseudoPot. # 1 for O  read from file O.pbe-van_bm.UPF
     MD5 check sum: ca2828d9fb1f294809e918903b7648d1
     Pseudo is Ultrasoft, Zval =  6.0
     Generated by new atomic code, or converted to UPF format
     Using radial grid of  737 points,  4 beta functions with: 
                l(1) =   0
                l(2) =   0
                l(3) =   1
                l(4) =   1
     Q(r) pseudized with  8 coefficients,  rinner =    0.800   0.800   0.800


     PseudoPot. # 2 for V  read from file V.pbe-van-yufengl.UPF
     MD5 check sum: 105a573f738f0b837c178d5a4207921b
     Pseudo is Ultrasoft + core correction, Zval = 13.0
     Generated by new atomic code, or converted to UPF format
     Using radial grid of  853 points,  6 beta functions with: 
                l(1) =   0
                l(2) =   0
                l(3) =   1
                l(4) =   1
                l(5) =   2
                l(6) =   2
     Q(r) pseudized with  6 coefficients,  rinner =    1.000   1.000   1.000
                                                       1.000   1.000

     PseudoPot. # 3 for ox read from file O.pbe-van-dgp-1s1.UPF
     MD5 check sum: 2083901d62884ac3a15d661bda1575b3
     Pseudo is Ultrasoft, Zval =  7.0
     Generated by new atomic code, or converted to UPF format
     Using radial grid of  737 points,  4 beta functions with: 
                l(1) =   0
                l(2) =   0
                l(3) =   1
                l(4) =   1
     Q(r) pseudized with  8 coefficients,  rinner =    0.800   0.800   0.800


     atomic species   valence    mass     pseudopotential
        O              6.00    15.99900     O ( 1.00)
        V             13.00    50.94000     V ( 1.00)
        OX             7.00    15.99900     ox( 1.00)

     Starting magnetic structure 
     atomic species   magnetization
        O            0.000
        V            0.010
        OX           0.000

     LDA+U calculation, Hubbard_lmax = 2
     atomic species  L   Hubbard U  Hubbard alpha
        V            2    0.227846    0.000000

      2 Sym.Ops. (no inversion)


   Cartesian axes

     site n.     atom                  positions (a_0 units)
         1           V   tau(  1) = (   0.1483269   0.0000000   0.3388149  )
         2           V   tau(  2) = (   0.1483269   0.0000000   0.7186289  )
         3           V   tau(  3) = (   0.1483269   0.3092237   0.3388149  )
         4           V   tau(  4) = (   0.1483269   0.3092237   0.7186289  )
         5           V   tau(  5) = (   0.1483269   0.6184474   0.3388149  )
         6           V   tau(  6) = (   0.1483269   0.6184474   0.7186289  )
         7           V   tau(  7) = (   0.3516731   0.1546118   0.0409986  )
         8           V   tau(  8) = (   0.3516731   0.1546118   0.4208125  )
         9           V   tau(  9) = (   0.3516731   0.4638355   0.0409986  )
        10           V   tau( 10) = (   0.3516731   0.4638355   0.4208125  )
        11           V   tau( 11) = (   0.3516731   0.7730592   0.0409986  )
        12           V   tau( 12) = (   0.3516731   0.7730592   0.4208125  )
        13           V   tau( 13) = (   0.6483270   0.1546118   0.0409980  )
        14           V   tau( 14) = (   0.6483270   0.1546118   0.4208119  )
        15           V   tau( 15) = (   0.6483270   0.4638355   0.0409980  )
        16           V   tau( 16) = (   0.6483270   0.4638355   0.4208119  )
        17           V   tau( 17) = (   0.6483270   0.7730592   0.0409980  )
        18           V   tau( 18) = (   0.6483270   0.7730592   0.4208119  )
        19           V   tau( 19) = (   0.8516731   0.0000000   0.3388154  )
        20           V   tau( 20) = (   0.8516731   0.0000000   0.7186293  )
        21           V   tau( 21) = (   0.8516731   0.3092237   0.3388154  )
        22           V   tau( 22) = (   0.8516731   0.3092237   0.7186293  )
        23           V   tau( 23) = (   0.8516731   0.6184474   0.3388154  )
        24           V   tau( 24) = (   0.8516731   0.6184474   0.7186293  )
        25           O   tau( 25) = (   0.1813361   0.1546118   0.3796345  )
        26           O   tau( 26) = (   0.1813361   0.1546118   0.7594484  )
        27           O   tau( 27) = (   0.1813361   0.4638355   0.3796345  )
        28           O   tau( 28) = (   0.1813361   0.4638355   0.7594484  )
        29           O   tau( 29) = (   0.1813361   0.7730592   0.3796345  )
        30           O   tau( 30) = (   0.1813361   0.7730592   0.7594484  )
        31           OX  tau( 31) = (   0.3186639   0.0000000   0.0001795  )
        32           O   tau( 32) = (   0.3186639   0.0000000   0.3799935  )
        33           O   tau( 33) = (   0.3186639   0.3092237   0.0001795  )
        34           O   tau( 34) = (   0.3186639   0.3092237   0.3799935  )
        35           O   tau( 35) = (   0.3186639   0.6184474   0.0001795  )
        36           O   tau( 36) = (   0.3186639   0.6184474   0.3799935  )
        37           O   tau( 37) = (   0.6813362   0.0000000   0.0001795  )
        38           O   tau( 38) = (   0.6813362   0.0000000   0.3799935  )
        39           O   tau( 39) = (   0.6813362   0.3092237   0.0001795  )
        40           O   tau( 40) = (   0.6813362   0.3092237   0.3799935  )
        41           O   tau( 41) = (   0.6813362   0.6184474   0.0001795  )
        42           O   tau( 42) = (   0.6813362   0.6184474   0.3799935  )
        43           O   tau( 43) = (   0.8186639   0.1546118   0.3796345  )
        44           O   tau( 44) = (   0.8186639   0.1546118   0.7594485  )
        45           O   tau( 45) = (   0.8186639   0.4638355   0.3796345  )
        46           O   tau( 46) = (   0.8186639   0.4638355   0.7594485  )
        47           O   tau( 47) = (   0.8186639   0.7730592   0.3796345  )
        48           O   tau( 48) = (   0.8186639   0.7730592   0.7594485  )
        49           O   tau( 49) = (   0.8552736   0.0000000   0.2004983  )
        50           O   tau( 50) = (   0.8552736   0.0000000   0.5803123  )
        51           O   tau( 51) = (   0.8552736   0.3092237   0.2004983  )
        52           O   tau( 52) = (   0.8552736   0.3092237   0.5803123  )
        53           O   tau( 53) = (   0.8552736   0.6184474   0.2004983  )
        54           O   tau( 54) = (   0.8552736   0.6184474   0.5803123  )
        55           O   tau( 55) = (   0.6447264   0.1546118   0.1793162  )
        56           O   tau( 56) = (   0.6447264   0.1546118   0.5591301  )
        57           O   tau( 57) = (   0.6447264   0.4638355   0.1793162  )
        58           O   tau( 58) = (   0.6447264   0.4638355   0.5591301  )
        59           O   tau( 59) = (   0.6447264   0.7730592   0.1793162  )
        60           O   tau( 60) = (   0.6447264   0.7730592   0.5591301  )
        61           O   tau( 61) = (   0.3552736   0.1546118   0.1793157  )
        62           O   tau( 62) = (   0.3552736   0.1546118   0.5591297  )
        63           O   tau( 63) = (   0.3552736   0.4638355   0.1793157  )
        64           O   tau( 64) = (   0.3552736   0.4638355   0.5591297  )
        65           O   tau( 65) = (   0.3552736   0.7730592   0.1793157  )
        66           O   tau( 66) = (   0.3552736   0.7730592   0.5591297  )
        67           O   tau( 67) = (   0.5000000   0.1546118   0.3788864  )
        68           O   tau( 68) = (   0.5000000   0.1546118   0.7587004  )
        69           O   tau( 69) = (   0.5000000   0.4638355   0.3788864  )
        70           O   tau( 70) = (   0.5000000   0.4638355   0.7587004  )
        71           O   tau( 71) = (   0.5000000   0.7730592   0.3788864  )
        72           O   tau( 72) = (   0.5000000   0.7730592   0.7587004  )
        73           O   tau( 73) = (  -0.0000000   0.0000000   0.0009276  )
        74           O   tau( 74) = (  -0.0000000   0.0000000   0.3807415  )
        75           O   tau( 75) = (  -0.0000000   0.3092237   0.0009276  )
        76           O   tau( 76) = (  -0.0000000   0.3092237   0.3807415  )
        77           O   tau( 77) = (  -0.0000000   0.6184474   0.0009276  )
        78           O   tau( 78) = (  -0.0000000   0.6184474   0.3807415  )
        79           O   tau( 79) = (   0.1447264   0.0000000   0.2004987  )
        80           O   tau( 80) = (   0.1447264   0.0000000   0.5803126  )
        81           O   tau( 81) = (   0.1447264   0.3092237   0.2004987  )
        82           O   tau( 82) = (   0.1447264   0.3092237   0.5803126  )
        83           O   tau( 83) = (   0.1447264   0.6184474   0.2004987  )
        84           O   tau( 84) = (   0.1447264   0.6184474   0.5803126  )

     number of k points=    16  Fermi-Dirac smearing, width (Ry)=  0.0019
                       cart. coord. in units 2pi/a_0
        k(    1) = (   0.0000000   0.0000000   0.0000000), wk =   0.1250000
        k(    2) = (   0.0000000   0.0000000  -0.6582170), wk =   0.1250000
        k(    3) = (   0.0000000  -0.5389842   0.0000000), wk =   0.1250000
        k(    4) = (   0.0000000  -0.5389842  -0.6582170), wk =   0.1250000
        k(    5) = (  -0.5000000   0.0000000   0.0000000), wk =   0.1250000
        k(    6) = (  -0.5000000   0.0000000  -0.6582170), wk =   0.1250000
        k(    7) = (  -0.5000000  -0.5389842   0.0000000), wk =   0.1250000
        k(    8) = (  -0.5000000  -0.5389842  -0.6582170), wk =   0.1250000
        k(    9) = (   0.0000000   0.0000000   0.0000000), wk =   0.1250000
        k(   10) = (   0.0000000   0.0000000  -0.6582170), wk =   0.1250000
        k(   11) = (   0.0000000  -0.5389842   0.0000000), wk =   0.1250000
        k(   12) = (   0.0000000  -0.5389842  -0.6582170), wk =   0.1250000
        k(   13) = (  -0.5000000   0.0000000   0.0000000), wk =   0.1250000
        k(   14) = (  -0.5000000   0.0000000  -0.6582170), wk =   0.1250000
        k(   15) = (  -0.5000000  -0.5389842   0.0000000), wk =   0.1250000
        k(   16) = (  -0.5000000  -0.5389842  -0.6582170), wk =   0.1250000

     G cutoff = 3590.7196  ( 635163 G-vectors)     FFT grid: (120,120, 96)
     G cutoff = 1436.2879  ( 160693 G-vectors)  smooth grid: ( 75, 72, 60)

     Largest allocated arrays     est. size (Mb)     dimensions
        Kohn-Sham Wavefunctions         1.97 Mb     (    321, 403)
        Atomic wavefunctions            2.35 Mb     (    321, 480)
        NL pseudopotentials             4.47 Mb     (    321, 912)
        Each V/rho on FFT grid          0.88 Mb     (  28800,   2)
        Each G-vector array             0.08 Mb     (   9926)
        G-vector shells                 0.04 Mb     (   4974)
     Largest temporary arrays     est. size (Mb)     dimensions
        Auxiliary wavefunctions         7.90 Mb     (    321,1612)
        Each subspace H/S matrix       39.65 Mb     (   1612,1612)
        Each <psi_i|beta_j> matrix      5.61 Mb     (    912, 403)
        Arrays for rho mixing           3.52 Mb     (  28800,   8)

     Check: negative/imaginary core charge=   -0.000004    0.000000

     Initial potential from superposition of free atoms
     Check: negative starting charge=(component1):   -0.005916
     Check: negative starting charge=(component2):   -0.005794

     starting charge  671.97045, renormalised to  672.00000

     negative rho (up, down):  0.592E-02 0.579E-02

     Parameters of the lda+U calculation:
     Number of iteration with fixed ns =  0
     Starting ns and Hubbard U :
 enter write_ns
U( 1) =  0.0000      U( 2) =  3.1000      U( 3) =  0.0000
alpha( 1) =  0.0000      alpha( 2) =  0.0000      alpha( 3) =  0.0000
atom    1   Tr[ns(na)]=   3.0000000
atom    1   spin  1
eigenvalues:  0.6000000 0.6000000 0.6000000 0.6000000 0.6000000
 eigenvectors
 1   1.0000000  0.0000000  0.0000000  0.0000000  0.0000000
 2   0.0000000  1.0000000  0.0000000  0.0000000  0.0000000
 3   0.0000000  0.0000000  1.0000000  0.0000000  0.0000000
 4   0.0000000  0.0000000  0.0000000  1.0000000  0.0000000
 5   0.0000000  0.0000000  0.0000000  0.0000000  1.0000000
 occupations
 0.600  0.000  0.000  0.000  0.000
 0.000  0.600  0.000  0.000  0.000
 0.000  0.000  0.600  0.000  0.000
 0.000  0.000  0.000  0.600  0.000
 0.000  0.000  0.000  0.000  0.600
atom    1   spin  2
eigenvalues:  0.0000000 0.0000000 0.0000000 0.0000000 0.0000000
 eigenvectors
 1   1.0000000  0.0000000  0.0000000  0.0000000  0.0000000
 2   0.0000000  1.0000000  0.0000000  0.0000000  0.0000000
 3   0.0000000  0.0000000  1.0000000  0.0000000  0.0000000
 4   0.0000000  0.0000000  0.0000000  1.0000000  0.0000000
 5   0.0000000  0.0000000  0.0000000  0.0000000  1.0000000
 occupations
 0.000  0.000  0.000  0.000  0.000
 0.000  0.000  0.000  0.000  0.000
 0.000  0.000  0.000  0.000  0.000
 0.000  0.000  0.000  0.000  0.000
 0.000  0.000  0.000  0.000  0.000
atom    2   Tr[ns(na)]=   3.0000000
atom    2   spin  1
eigenvalues:  0.6000000 0.6000000 0.6000000 0.6000000 0.6000000
 eigenvectors
 1   1.0000000  0.0000000  0.0000000  0.0000000  0.0000000
 2   0.0000000  1.0000000  0.0000000  0.0000000  0.0000000
 3   0.0000000  0.0000000  1.0000000  0.0000000  0.0000000
 4   0.0000000  0.0000000  0.0000000  1.0000000  0.0000000
 5   0.0000000  0.0000000  0.0000000  0.0000000  1.0000000
 occupations
 0.600  0.000  0.000  0.000  0.000
 0.000  0.600  0.000  0.000  0.000
 0.000  0.000  0.600  0.000  0.000
 0.000  0.000  0.000  0.600  0.000
 0.000  0.000  0.000  0.000  0.600
atom    2   spin  2
eigenvalues:  0.0000000 0.0000000 0.0000000 0.0000000 0.0000000
 eigenvectors
 1   1.0000000  0.0000000  0.0000000  0.0000000  0.0000000
 2   0.0000000  1.0000000  0.0000000  0.0000000  0.0000000
 3   0.0000000  0.0000000  1.0000000  0.0000000  0.0000000
 4   0.0000000  0.0000000  0.0000000  1.0000000  0.0000000
 5   0.0000000  0.0000000  0.0000000  0.0000000  1.0000000
 occupations
 0.000  0.000  0.000  0.000  0.000
 0.000  0.000  0.000  0.000  0.000
 0.000  0.000  0.000  0.000  0.000
 0.000  0.000  0.000  0.000  0.000
 0.000  0.000  0.000  0.000  0.000
atom    3   Tr[ns(na)]=   3.0000000
atom    3   spin  1
eigenvalues:  0.6000000 0.6000000 0.6000000 0.6000000 0.6000000
 eigenvectors
 1   1.0000000  0.0000000  0.0000000  0.0000000  0.0000000
 2   0.0000000  1.0000000  0.0000000  0.0000000  0.0000000
 3   0.0000000  0.0000000  1.0000000  0.0000000  0.0000000
 4   0.0000000  0.0000000  0.0000000  1.0000000  0.0000000
 5   0.0000000  0.0000000  0.0000000  0.0000000  1.0000000
 occupations
 0.600  0.000  0.000  0.000  0.000
 0.000  0.600  0.000  0.000  0.000
 0.000  0.000  0.600  0.000  0.000
 0.000  0.000  0.000  0.600  0.000
 0.000  0.000  0.000  0.000  0.600
atom    3   spin  2
eigenvalues:  0.0000000 0.0000000 0.0000000 0.0000000 0.0000000
 eigenvectors
 1   1.0000000  0.0000000  0.0000000  0.0000000  0.0000000
 2   0.0000000  1.0000000  0.0000000  0.0000000  0.0000000
 3   0.0000000  0.0000000  1.0000000  0.0000000  0.0000000
 4   0.0000000  0.0000000  0.0000000  1.0000000  0.0000000
 5   0.0000000  0.0000000  0.0000000  0.0000000  1.0000000
 occupations
 0.000  0.000  0.000  0.000  0.000
 0.000  0.000  0.000  0.000  0.000
 0.000  0.000  0.000  0.000  0.000
 0.000  0.000  0.000  0.000  0.000
 0.000  0.000  0.000  0.000  0.000
atom    4   Tr[ns(na)]=   3.0000000
atom    4   spin  1
eigenvalues:  0.6000000 0.6000000 0.6000000 0.6000000 0.6000000
 eigenvectors
 1   1.0000000  0.0000000  0.0000000  0.0000000  0.0000000
 2   0.0000000  1.0000000  0.0000000  0.0000000  0.0000000
 3   0.0000000  0.0000000  1.0000000  0.0000000  0.0000000
 4   0.0000000  0.0000000  0.0000000  1.0000000  0.0000000
 5   0.0000000  0.0000000  0.0000000  0.0000000  1.0000000
 occupations
 0.600  0.000  0.000  0.000  0.000
 0.000  0.600  0.000  0.000  0.000
 0.000  0.000  0.600  0.000  0.000
 0.000  0.000  0.000  0.600  0.000
 0.000  0.000  0.000  0.000  0.600
atom    4   spin  2
eigenvalues:  0.0000000 0.0000000 0.0000000 0.0000000 0.0000000
 eigenvectors
 1   1.0000000  0.0000000  0.0000000  0.0000000  0.0000000
 2   0.0000000  1.0000000  0.0000000  0.0000000  0.0000000
 3   0.0000000  0.0000000  1.0000000  0.0000000  0.0000000
 4   0.0000000  0.0000000  0.0000000  1.0000000  0.0000000
 5   0.0000000  0.0000000  0.0000000  0.0000000  1.0000000
 occupations
 0.000  0.000  0.000  0.000  0.000
 0.000  0.000  0.000  0.000  0.000
 0.000  0.000  0.000  0.000  0.000
 0.000  0.000  0.000  0.000  0.000
 0.000  0.000  0.000  0.000  0.000
atom    5   Tr[ns(na)]=   3.0000000
atom    5   spin  1
eigenvalues:  0.6000000 0.6000000 0.6000000 0.6000000 0.6000000
 eigenvectors
 1   1.0000000  0.0000000  0.0000000  0.0000000  0.0000000
 2   0.0000000  1.0000000  0.0000000  0.0000000  0.0000000
 3   0.0000000  0.0000000  1.0000000  0.0000000  0.0000000
 4   0.0000000  0.0000000  0.0000000  1.0000000  0.0000000
 5   0.0000000  0.0000000  0.0000000  0.0000000  1.0000000
 occupations
 0.600  0.000  0.000  0.000  0.000
 0.000  0.600  0.000  0.000  0.000
 0.000  0.000  0.600  0.000  0.000
 0.000  0.000  0.000  0.600  0.000
 0.000  0.000  0.000  0.000  0.600
atom    5   spin  2
eigenvalues:  0.0000000 0.0000000 0.0000000 0.0000000 0.0000000
 eigenvectors
 1   1.0000000  0.0000000  0.0000000  0.0000000  0.0000000
 2   0.0000000  1.0000000  0.0000000  0.0000000  0.0000000
 3   0.0000000  0.0000000  1.0000000  0.0000000  0.0000000
 4   0.0000000  0.0000000  0.0000000  1.0000000  0.0000000
 5   0.0000000  0.0000000  0.0000000  0.0000000  1.0000000
 occupations
 0.000  0.000  0.000  0.000  0.000
 0.000  0.000  0.000  0.000  0.000
 0.000  0.000  0.000  0.000  0.000
 0.000  0.000  0.000  0.000  0.000
 0.000  0.000  0.000  0.000  0.000
atom    6   Tr[ns(na)]=   3.0000000
atom    6   spin  1
eigenvalues:  0.6000000 0.6000000 0.6000000 0.6000000 0.6000000
 eigenvectors
 1   1.0000000  0.0000000  0.0000000  0.0000000  0.0000000
 2   0.0000000  1.0000000  0.0000000  0.0000000  0.0000000
 3   0.0000000  0.0000000  1.0000000  0.0000000  0.0000000
 4   0.0000000  0.0000000  0.0000000  1.0000000  0.0000000
 5   0.0000000  0.0000000  0.0000000  0.0000000  1.0000000
 occupations
 0.600  0.000  0.000  0.000  0.000
 0.000  0.600  0.000  0.000  0.000
 0.000  0.000  0.600  0.000  0.000
 0.000  0.000  0.000  0.600  0.000
 0.000  0.000  0.000  0.000  0.600
atom    6   spin  2
eigenvalues:  0.0000000 0.0000000 0.0000000 0.0000000 0.0000000
 eigenvectors
 1   1.0000000  0.0000000  0.0000000  0.0000000  0.0000000
 2   0.0000000  1.0000000  0.0000000  0.0000000  0.0000000
 3   0.0000000  0.0000000  1.0000000  0.0000000  0.0000000
 4   0.0000000  0.0000000  0.0000000  1.0000000  0.0000000
 5   0.0000000  0.0000000  0.0000000  0.0000000  1.0000000
 occupations
 0.000  0.000  0.000  0.000  0.000
 0.000  0.000  0.000  0.000  0.000
 0.000  0.000  0.000  0.000  0.000
 0.000  0.000  0.000  0.000  0.000
 0.000  0.000  0.000  0.000  0.000
atom    7   Tr[ns(na)]=   3.0000000
atom    7   spin  1
eigenvalues:  0.6000000 0.6000000 0.6000000 0.6000000 0.6000000
 eigenvectors
 1   1.0000000  0.0000000  0.0000000  0.0000000  0.0000000
 2   0.0000000  1.0000000  0.0000000  0.0000000  0.0000000
 3   0.0000000  0.0000000  1.0000000  0.0000000  0.0000000
 4   0.0000000  0.0000000  0.0000000  1.0000000  0.0000000
 5   0.0000000  0.0000000  0.0000000  0.0000000  1.0000000
 occupations
 0.600  0.000  0.000  0.000  0.000
 0.000  0.600  0.000  0.000  0.000
 0.000  0.000  0.600  0.000  0.000
 0.000  0.000  0.000  0.600  0.000
 0.000  0.000  0.000  0.000  0.600
atom    7   spin  2
eigenvalues:  0.0000000 0.0000000 0.0000000 0.0000000 0.0000000
 eigenvectors
 1   1.0000000  0.0000000  0.0000000  0.0000000  0.0000000
 2   0.0000000  1.0000000  0.0000000  0.0000000  0.0000000
 3   0.0000000  0.0000000  1.0000000  0.0000000  0.0000000
 4   0.0000000  0.0000000  0.0000000  1.0000000  0.0000000
 5   0.0000000  0.0000000  0.0000000  0.0000000  1.0000000
 occupations
 0.000  0.000  0.000  0.000  0.000
 0.000  0.000  0.000  0.000  0.000
 0.000  0.000  0.000  0.000  0.000
 0.000  0.000  0.000  0.000  0.000
 0.000  0.000  0.000  0.000  0.000
atom    8   Tr[ns(na)]=   3.0000000
atom    8   spin  1
eigenvalues:  0.6000000 0.6000000 0.6000000 0.6000000 0.6000000
 eigenvectors
 1   1.0000000  0.0000000  0.0000000  0.0000000  0.0000000
 2   0.0000000  1.0000000  0.0000000  0.0000000  0.0000000
 3   0.0000000  0.0000000  1.0000000  0.0000000  0.0000000
 4   0.0000000  0.0000000  0.0000000  1.0000000  0.0000000
 5   0.0000000  0.0000000  0.0000000  0.0000000  1.0000000
 occupations
 0.600  0.000  0.000  0.000  0.000
 0.000  0.600  0.000  0.000  0.000
 0.000  0.000  0.600  0.000  0.000
 0.000  0.000  0.000  0.600  0.000
 0.000  0.000  0.000  0.000  0.600
atom    8   spin  2
eigenvalues:  0.0000000 0.0000000 0.0000000 0.0000000 0.0000000
 eigenvectors
 1   1.0000000  0.0000000  0.0000000  0.0000000  0.0000000
 2   0.0000000  1.0000000  0.0000000  0.0000000  0.0000000
 3   0.0000000  0.0000000  1.0000000  0.0000000  0.0000000
 4   0.0000000  0.0000000  0.0000000  1.0000000  0.0000000
 5   0.0000000  0.0000000  0.0000000  0.0000000  1.0000000
 occupations
 0.000  0.000  0.000  0.000  0.000
 0.000  0.000  0.000  0.000  0.000
 0.000  0.000  0.000  0.000  0.000
 0.000  0.000  0.000  0.000  0.000
 0.000  0.000  0.000  0.000  0.000
atom    9   Tr[ns(na)]=   3.0000000
atom    9   spin  1
eigenvalues:  0.6000000 0.6000000 0.6000000 0.6000000 0.6000000
 eigenvectors
 1   1.0000000  0.0000000  0.0000000  0.0000000  0.0000000
 2   0.0000000  1.0000000  0.0000000  0.0000000  0.0000000
 3   0.0000000  0.0000000  1.0000000  0.0000000  0.0000000
 4   0.0000000  0.0000000  0.0000000  1.0000000  0.0000000
 5   0.0000000  0.0000000  0.0000000  0.0000000  1.0000000
 occupations
 0.600  0.000  0.000  0.000  0.000
 0.000  0.600  0.000  0.000  0.000
 0.000  0.000  0.600  0.000  0.000
 0.000  0.000  0.000  0.600  0.000
 0.000  0.000  0.000  0.000  0.600
atom    9   spin  2
eigenvalues:  0.0000000 0.0000000 0.0000000 0.0000000 0.0000000
 eigenvectors
 1   1.0000000  0.0000000  0.0000000  0.0000000  0.0000000
 2   0.0000000  1.0000000  0.0000000  0.0000000  0.0000000
 3   0.0000000  0.0000000  1.0000000  0.0000000  0.0000000
 4   0.0000000  0.0000000  0.0000000  1.0000000  0.0000000
 5   0.0000000  0.0000000  0.0000000  0.0000000  1.0000000
 occupations
 0.000  0.000  0.000  0.000  0.000
 0.000  0.000  0.000  0.000  0.000
 0.000  0.000  0.000  0.000  0.000
 0.000  0.000  0.000  0.000  0.000
 0.000  0.000  0.000  0.000  0.000
atom   10   Tr[ns(na)]=   3.0000000
atom   10   spin  1
eigenvalues:  0.6000000 0.6000000 0.6000000 0.6000000 0.6000000
 eigenvectors
 1   1.0000000  0.0000000  0.0000000  0.0000000  0.0000000
 2   0.0000000  1.0000000  0.0000000  0.0000000  0.0000000
 3   0.0000000  0.0000000  1.0000000  0.0000000  0.0000000
 4   0.0000000  0.0000000  0.0000000  1.0000000  0.0000000
 5   0.0000000  0.0000000  0.0000000  0.0000000  1.0000000
 occupations
 0.600  0.000  0.000  0.000  0.000
 0.000  0.600  0.000  0.000  0.000
 0.000  0.000  0.600  0.000  0.000
 0.000  0.000  0.000  0.600  0.000
 0.000  0.000  0.000  0.000  0.600
atom   10   spin  2
eigenvalues:  0.0000000 0.0000000 0.0000000 0.0000000 0.0000000
 eigenvectors
 1   1.0000000  0.0000000  0.0000000  0.0000000  0.0000000
 2   0.0000000  1.0000000  0.0000000  0.0000000  0.0000000
 3   0.0000000  0.0000000  1.0000000  0.0000000  0.0000000
 4   0.0000000  0.0000000  0.0000000  1.0000000  0.0000000
 5   0.0000000  0.0000000  0.0000000  0.0000000  1.0000000
 occupations
 0.000  0.000  0.000  0.000  0.000
 0.000  0.000  0.000  0.000  0.000
 0.000  0.000  0.000  0.000  0.000
 0.000  0.000  0.000  0.000  0.000
 0.000  0.000  0.000  0.000  0.000
atom   11   Tr[ns(na)]=   3.0000000
atom   11   spin  1
eigenvalues:  0.6000000 0.6000000 0.6000000 0.6000000 0.6000000
 eigenvectors
 1   1.0000000  0.0000000  0.0000000  0.0000000  0.0000000
 2   0.0000000  1.0000000  0.0000000  0.0000000  0.0000000
 3   0.0000000  0.0000000  1.0000000  0.0000000  0.0000000
 4   0.0000000  0.0000000  0.0000000  1.0000000  0.0000000
 5   0.0000000  0.0000000  0.0000000  0.0000000  1.0000000
 occupations
 0.600  0.000  0.000  0.000  0.000
 0.000  0.600  0.000  0.000  0.000
 0.000  0.000  0.600  0.000  0.000
 0.000  0.000  0.000  0.600  0.000
 0.000  0.000  0.000  0.000  0.600
atom   11   spin  2
eigenvalues:  0.0000000 0.0000000 0.0000000 0.0000000 0.0000000
 eigenvectors
 1   1.0000000  0.0000000  0.0000000  0.0000000  0.0000000
 2   0.0000000  1.0000000  0.0000000  0.0000000  0.0000000
 3   0.0000000  0.0000000  1.0000000  0.0000000  0.0000000
 4   0.0000000  0.0000000  0.0000000  1.0000000  0.0000000
 5   0.0000000  0.0000000  0.0000000  0.0000000  1.0000000
 occupations
 0.000  0.000  0.000  0.000  0.000
 0.000  0.000  0.000  0.000  0.000
 0.000  0.000  0.000  0.000  0.000
 0.000  0.000  0.000  0.000  0.000
 0.000  0.000  0.000  0.000  0.000
atom   12   Tr[ns(na)]=   3.0000000
atom   12   spin  1
eigenvalues:  0.6000000 0.6000000 0.6000000 0.6000000 0.6000000
 eigenvectors
 1   1.0000000  0.0000000  0.0000000  0.0000000  0.0000000
 2   0.0000000  1.0000000  0.0000000  0.0000000  0.0000000
 3   0.0000000  0.0000000  1.0000000  0.0000000  0.0000000
 4   0.0000000  0.0000000  0.0000000  1.0000000  0.0000000
 5   0.0000000  0.0000000  0.0000000  0.0000000  1.0000000
 occupations
 0.600  0.000  0.000  0.000  0.000
 0.000  0.600  0.000  0.000  0.000
 0.000  0.000  0.600  0.000  0.000
 0.000  0.000  0.000  0.600  0.000
 0.000  0.000  0.000  0.000  0.600
atom   12   spin  2
eigenvalues:  0.0000000 0.0000000 0.0000000 0.0000000 0.0000000
 eigenvectors
 1   1.0000000  0.0000000  0.0000000  0.0000000  0.0000000
 2   0.0000000  1.0000000  0.0000000  0.0000000  0.0000000
 3   0.0000000  0.0000000  1.0000000  0.0000000  0.0000000
 4   0.0000000  0.0000000  0.0000000  1.0000000  0.0000000
 5   0.0000000  0.0000000  0.0000000  0.0000000  1.0000000
 occupations
 0.000  0.000  0.000  0.000  0.000
 0.000  0.000  0.000  0.000  0.000
 0.000  0.000  0.000  0.000  0.000
 0.000  0.000  0.000  0.000  0.000
 0.000  0.000  0.000  0.000  0.000
atom   13   Tr[ns(na)]=   3.0000000
atom   13   spin  1
eigenvalues:  0.6000000 0.6000000 0.6000000 0.6000000 0.6000000
 eigenvectors
 1   1.0000000  0.0000000  0.0000000  0.0000000  0.0000000
 2   0.0000000  1.0000000  0.0000000  0.0000000  0.0000000
 3   0.0000000  0.0000000  1.0000000  0.0000000  0.0000000
 4   0.0000000  0.0000000  0.0000000  1.0000000  0.0000000
 5   0.0000000  0.0000000  0.0000000  0.0000000  1.0000000
 occupations
 0.600  0.000  0.000  0.000  0.000
 0.000  0.600  0.000  0.000  0.000
 0.000  0.000  0.600  0.000  0.000
 0.000  0.000  0.000  0.600  0.000
 0.000  0.000  0.000  0.000  0.600
atom   13   spin  2
eigenvalues:  0.0000000 0.0000000 0.0000000 0.0000000 0.0000000
 eigenvectors
 1   1.0000000  0.0000000  0.0000000  0.0000000  0.0000000
 2   0.0000000  1.0000000  0.0000000  0.0000000  0.0000000
 3   0.0000000  0.0000000  1.0000000  0.0000000  0.0000000
 4   0.0000000  0.0000000  0.0000000  1.0000000  0.0000000
 5   0.0000000  0.0000000  0.0000000  0.0000000  1.0000000
 occupations
 0.000  0.000  0.000  0.000  0.000
 0.000  0.000  0.000  0.000  0.000
 0.000  0.000  0.000  0.000  0.000
 0.000  0.000  0.000  0.000  0.000
 0.000  0.000  0.000  0.000  0.000
atom   14   Tr[ns(na)]=   3.0000000
atom   14   spin  1
eigenvalues:  0.6000000 0.6000000 0.6000000 0.6000000 0.6000000
 eigenvectors
 1   1.0000000  0.0000000  0.0000000  0.0000000  0.0000000
 2   0.0000000  1.0000000  0.0000000  0.0000000  0.0000000
 3   0.0000000  0.0000000  1.0000000  0.0000000  0.0000000
 4   0.0000000  0.0000000  0.0000000  1.0000000  0.0000000
 5   0.0000000  0.0000000  0.0000000  0.0000000  1.0000000
 occupations
 0.600  0.000  0.000  0.000  0.000
 0.000  0.600  0.000  0.000  0.000
 0.000  0.000  0.600  0.000  0.000
 0.000  0.000  0.000  0.600  0.000
 0.000  0.000  0.000  0.000  0.600
atom   14   spin  2
eigenvalues:  0.0000000 0.0000000 0.0000000 0.0000000 0.0000000
 eigenvectors
 1   1.0000000  0.0000000  0.0000000  0.0000000  0.0000000
 2   0.0000000  1.0000000  0.0000000  0.0000000  0.0000000
 3   0.0000000  0.0000000  1.0000000  0.0000000  0.0000000
 4   0.0000000  0.0000000  0.0000000  1.0000000  0.0000000
 5   0.0000000  0.0000000  0.0000000  0.0000000  1.0000000
 occupations
 0.000  0.000  0.000  0.000  0.000
 0.000  0.000  0.000  0.000  0.000
 0.000  0.000  0.000  0.000  0.000
 0.000  0.000  0.000  0.000  0.000
 0.000  0.000  0.000  0.000  0.000
atom   15   Tr[ns(na)]=   3.0000000
atom   15   spin  1
eigenvalues:  0.6000000 0.6000000 0.6000000 0.6000000 0.6000000
 eigenvectors
 1   1.0000000  0.0000000  0.0000000  0.0000000  0.0000000
 2   0.0000000  1.0000000  0.0000000  0.0000000  0.0000000
 3   0.0000000  0.0000000  1.0000000  0.0000000  0.0000000
 4   0.0000000  0.0000000  0.0000000  1.0000000  0.0000000
 5   0.0000000  0.0000000  0.0000000  0.0000000  1.0000000
 occupations
 0.600  0.000  0.000  0.000  0.000
 0.000  0.600  0.000  0.000  0.000
 0.000  0.000  0.600  0.000  0.000
 0.000  0.000  0.000  0.600  0.000
 0.000  0.000  0.000  0.000  0.600
atom   15   spin  2
eigenvalues:  0.0000000 0.0000000 0.0000000 0.0000000 0.0000000
 eigenvectors
 1   1.0000000  0.0000000  0.0000000  0.0000000  0.0000000
 2   0.0000000  1.0000000  0.0000000  0.0000000  0.0000000
 3   0.0000000  0.0000000  1.0000000  0.0000000  0.0000000
 4   0.0000000  0.0000000  0.0000000  1.0000000  0.0000000
 5   0.0000000  0.0000000  0.0000000  0.0000000  1.0000000
 occupations
 0.000  0.000  0.000  0.000  0.000
 0.000  0.000  0.000  0.000  0.000
 0.000  0.000  0.000  0.000  0.000
 0.000  0.000  0.000  0.000  0.000
 0.000  0.000  0.000  0.000  0.000
atom   16   Tr[ns(na)]=   3.0000000
atom   16   spin  1
eigenvalues:  0.6000000 0.6000000 0.6000000 0.6000000 0.6000000
 eigenvectors
 1   1.0000000  0.0000000  0.0000000  0.0000000  0.0000000
 2   0.0000000  1.0000000  0.0000000  0.0000000  0.0000000
 3   0.0000000  0.0000000  1.0000000  0.0000000  0.0000000
 4   0.0000000  0.0000000  0.0000000  1.0000000  0.0000000
 5   0.0000000  0.0000000  0.0000000  0.0000000  1.0000000
 occupations
 0.600  0.000  0.000  0.000  0.000
 0.000  0.600  0.000  0.000  0.000
 0.000  0.000  0.600  0.000  0.000
 0.000  0.000  0.000  0.600  0.000
 0.000  0.000  0.000  0.000  0.600
atom   16   spin  2
eigenvalues:  0.0000000 0.0000000 0.0000000 0.0000000 0.0000000
 eigenvectors
 1   1.0000000  0.0000000  0.0000000  0.0000000  0.0000000
 2   0.0000000  1.0000000  0.0000000  0.0000000  0.0000000
 3   0.0000000  0.0000000  1.0000000  0.0000000  0.0000000
 4   0.0000000  0.0000000  0.0000000  1.0000000  0.0000000
 5   0.0000000  0.0000000  0.0000000  0.0000000  1.0000000
 occupations
 0.000  0.000  0.000  0.000  0.000
 0.000  0.000  0.000  0.000  0.000
 0.000  0.000  0.000  0.000  0.000
 0.000  0.000  0.000  0.000  0.000
 0.000  0.000  0.000  0.000  0.000
atom   17   Tr[ns(na)]=   3.0000000
atom   17   spin  1
eigenvalues:  0.6000000 0.6000000 0.6000000 0.6000000 0.6000000
 eigenvectors
 1   1.0000000  0.0000000  0.0000000  0.0000000  0.0000000
 2   0.0000000  1.0000000  0.0000000  0.0000000  0.0000000
 3   0.0000000  0.0000000  1.0000000  0.0000000  0.0000000
 4   0.0000000  0.0000000  0.0000000  1.0000000  0.0000000
 5   0.0000000  0.0000000  0.0000000  0.0000000  1.0000000
 occupations
 0.600  0.000  0.000  0.000  0.000
 0.000  0.600  0.000  0.000  0.000
 0.000  0.000  0.600  0.000  0.000
 0.000  0.000  0.000  0.600  0.000
 0.000  0.000  0.000  0.000  0.600
atom   17   spin  2
eigenvalues:  0.0000000 0.0000000 0.0000000 0.0000000 0.0000000
 eigenvectors
 1   1.0000000  0.0000000  0.0000000  0.0000000  0.0000000
 2   0.0000000  1.0000000  0.0000000  0.0000000  0.0000000
 3   0.0000000  0.0000000  1.0000000  0.0000000  0.0000000
 4   0.0000000  0.0000000  0.0000000  1.0000000  0.0000000
 5   0.0000000  0.0000000  0.0000000  0.0000000  1.0000000
 occupations
 0.000  0.000  0.000  0.000  0.000
 0.000  0.000  0.000  0.000  0.000
 0.000  0.000  0.000  0.000  0.000
 0.000  0.000  0.000  0.000  0.000
 0.000  0.000  0.000  0.000  0.000
atom   18   Tr[ns(na)]=   3.0000000
atom   18   spin  1
eigenvalues:  0.6000000 0.6000000 0.6000000 0.6000000 0.6000000
 eigenvectors
 1   1.0000000  0.0000000  0.0000000  0.0000000  0.0000000
 2   0.0000000  1.0000000  0.0000000  0.0000000  0.0000000
 3   0.0000000  0.0000000  1.0000000  0.0000000  0.0000000
 4   0.0000000  0.0000000  0.0000000  1.0000000  0.0000000
 5   0.0000000  0.0000000  0.0000000  0.0000000  1.0000000
 occupations
 0.600  0.000  0.000  0.000  0.000
 0.000  0.600  0.000  0.000  0.000
 0.000  0.000  0.600  0.000  0.000
 0.000  0.000  0.000  0.600  0.000
 0.000  0.000  0.000  0.000  0.600
atom   18   spin  2
eigenvalues:  0.0000000 0.0000000 0.0000000 0.0000000 0.0000000
 eigenvectors
 1   1.0000000  0.0000000  0.0000000  0.0000000  0.0000000
 2   0.0000000  1.0000000  0.0000000  0.0000000  0.0000000
 3   0.0000000  0.0000000  1.0000000  0.0000000  0.0000000
 4   0.0000000  0.0000000  0.0000000  1.0000000  0.0000000
 5   0.0000000  0.0000000  0.0000000  0.0000000  1.0000000
 occupations
 0.000  0.000  0.000  0.000  0.000
 0.000  0.000  0.000  0.000  0.000
 0.000  0.000  0.000  0.000  0.000
 0.000  0.000  0.000  0.000  0.000
 0.000  0.000  0.000  0.000  0.000
atom   19   Tr[ns(na)]=   3.0000000
atom   19   spin  1
eigenvalues:  0.6000000 0.6000000 0.6000000 0.6000000 0.6000000
 eigenvectors
 1   1.0000000  0.0000000  0.0000000  0.0000000  0.0000000
 2   0.0000000  1.0000000  0.0000000  0.0000000  0.0000000
 3   0.0000000  0.0000000  1.0000000  0.0000000  0.0000000
 4   0.0000000  0.0000000  0.0000000  1.0000000  0.0000000
 5   0.0000000  0.0000000  0.0000000  0.0000000  1.0000000
 occupations
 0.600  0.000  0.000  0.000  0.000
 0.000  0.600  0.000  0.000  0.000
 0.000  0.000  0.600  0.000  0.000
 0.000  0.000  0.000  0.600  0.000
 0.000  0.000  0.000  0.000  0.600
atom   19   spin  2
eigenvalues:  0.0000000 0.0000000 0.0000000 0.0000000 0.0000000
 eigenvectors
 1   1.0000000  0.0000000  0.0000000  0.0000000  0.0000000
 2   0.0000000  1.0000000  0.0000000  0.0000000  0.0000000
 3   0.0000000  0.0000000  1.0000000  0.0000000  0.0000000
 4   0.0000000  0.0000000  0.0000000  1.0000000  0.0000000
 5   0.0000000  0.0000000  0.0000000  0.0000000  1.0000000
 occupations
 0.000  0.000  0.000  0.000  0.000
 0.000  0.000  0.000  0.000  0.000
 0.000  0.000  0.000  0.000  0.000
 0.000  0.000  0.000  0.000  0.000
 0.000  0.000  0.000  0.000  0.000
atom   20   Tr[ns(na)]=   3.0000000
atom   20   spin  1
eigenvalues:  0.6000000 0.6000000 0.6000000 0.6000000 0.6000000
 eigenvectors
 1   1.0000000  0.0000000  0.0000000  0.0000000  0.0000000
 2   0.0000000  1.0000000  0.0000000  0.0000000  0.0000000
 3   0.0000000  0.0000000  1.0000000  0.0000000  0.0000000
 4   0.0000000  0.0000000  0.0000000  1.0000000  0.0000000
 5   0.0000000  0.0000000  0.0000000  0.0000000  1.0000000
 occupations
 0.600  0.000  0.000  0.000  0.000
 0.000  0.600  0.000  0.000  0.000
 0.000  0.000  0.600  0.000  0.000
 0.000  0.000  0.000  0.600  0.000
 0.000  0.000  0.000  0.000  0.600
atom   20   spin  2
eigenvalues:  0.0000000 0.0000000 0.0000000 0.0000000 0.0000000
 eigenvectors
 1   1.0000000  0.0000000  0.0000000  0.0000000  0.0000000
 2   0.0000000  1.0000000  0.0000000  0.0000000  0.0000000
 3   0.0000000  0.0000000  1.0000000  0.0000000  0.0000000
 4   0.0000000  0.0000000  0.0000000  1.0000000  0.0000000
 5   0.0000000  0.0000000  0.0000000  0.0000000  1.0000000
 occupations
 0.000  0.000  0.000  0.000  0.000
 0.000  0.000  0.000  0.000  0.000
 0.000  0.000  0.000  0.000  0.000
 0.000  0.000  0.000  0.000  0.000
 0.000  0.000  0.000  0.000  0.000
atom   21   Tr[ns(na)]=   3.0000000
atom   21   spin  1
eigenvalues:  0.6000000 0.6000000 0.6000000 0.6000000 0.6000000
 eigenvectors
 1   1.0000000  0.0000000  0.0000000  0.0000000  0.0000000
 2   0.0000000  1.0000000  0.0000000  0.0000000  0.0000000
 3   0.0000000  0.0000000  1.0000000  0.0000000  0.0000000
 4   0.0000000  0.0000000  0.0000000  1.0000000  0.0000000
 5   0.0000000  0.0000000  0.0000000  0.0000000  1.0000000
 occupations
 0.600  0.000  0.000  0.000  0.000
 0.000  0.600  0.000  0.000  0.000
 0.000  0.000  0.600  0.000  0.000
 0.000  0.000  0.000  0.600  0.000
 0.000  0.000  0.000  0.000  0.600
atom   21   spin  2
eigenvalues:  0.0000000 0.0000000 0.0000000 0.0000000 0.0000000
 eigenvectors
 1   1.0000000  0.0000000  0.0000000  0.0000000  0.0000000
 2   0.0000000  1.0000000  0.0000000  0.0000000  0.0000000
 3   0.0000000  0.0000000  1.0000000  0.0000000  0.0000000
 4   0.0000000  0.0000000  0.0000000  1.0000000  0.0000000
 5   0.0000000  0.0000000  0.0000000  0.0000000  1.0000000
 occupations
 0.000  0.000  0.000  0.000  0.000
 0.000  0.000  0.000  0.000  0.000
 0.000  0.000  0.000  0.000  0.000
 0.000  0.000  0.000  0.000  0.000
 0.000  0.000  0.000  0.000  0.000
atom   22   Tr[ns(na)]=   3.0000000
atom   22   spin  1
eigenvalues:  0.6000000 0.6000000 0.6000000 0.6000000 0.6000000
 eigenvectors
 1   1.0000000  0.0000000  0.0000000  0.0000000  0.0000000
 2   0.0000000  1.0000000  0.0000000  0.0000000  0.0000000
 3   0.0000000  0.0000000  1.0000000  0.0000000  0.0000000
 4   0.0000000  0.0000000  0.0000000  1.0000000  0.0000000
 5   0.0000000  0.0000000  0.0000000  0.0000000  1.0000000
 occupations
 0.600  0.000  0.000  0.000  0.000
 0.000  0.600  0.000  0.000  0.000
 0.000  0.000  0.600  0.000  0.000
 0.000  0.000  0.000  0.600  0.000
 0.000  0.000  0.000  0.000  0.600
atom   22   spin  2
eigenvalues:  0.0000000 0.0000000 0.0000000 0.0000000 0.0000000
 eigenvectors
 1   1.0000000  0.0000000  0.0000000  0.0000000  0.0000000
 2   0.0000000  1.0000000  0.0000000  0.0000000  0.0000000
 3   0.0000000  0.0000000  1.0000000  0.0000000  0.0000000
 4   0.0000000  0.0000000  0.0000000  1.0000000  0.0000000
 5   0.0000000  0.0000000  0.0000000  0.0000000  1.0000000
 occupations
 0.000  0.000  0.000  0.000  0.000
 0.000  0.000  0.000  0.000  0.000
 0.000  0.000  0.000  0.000  0.000
 0.000  0.000  0.000  0.000  0.000
 0.000  0.000  0.000  0.000  0.000
atom   23   Tr[ns(na)]=   3.0000000
atom   23   spin  1
eigenvalues:  0.6000000 0.6000000 0.6000000 0.6000000 0.6000000
 eigenvectors
 1   1.0000000  0.0000000  0.0000000  0.0000000  0.0000000
 2   0.0000000  1.0000000  0.0000000  0.0000000  0.0000000
 3   0.0000000  0.0000000  1.0000000  0.0000000  0.0000000
 4   0.0000000  0.0000000  0.0000000  1.0000000  0.0000000
 5   0.0000000  0.0000000  0.0000000  0.0000000  1.0000000
 occupations
 0.600  0.000  0.000  0.000  0.000
 0.000  0.600  0.000  0.000  0.000
 0.000  0.000  0.600  0.000  0.000
 0.000  0.000  0.000  0.600  0.000
 0.000  0.000  0.000  0.000  0.600
atom   23   spin  2
eigenvalues:  0.0000000 0.0000000 0.0000000 0.0000000 0.0000000
 eigenvectors
 1   1.0000000  0.0000000  0.0000000  0.0000000  0.0000000
 2   0.0000000  1.0000000  0.0000000  0.0000000  0.0000000
 3   0.0000000  0.0000000  1.0000000  0.0000000  0.0000000
 4   0.0000000  0.0000000  0.0000000  1.0000000  0.0000000
 5   0.0000000  0.0000000  0.0000000  0.0000000  1.0000000
 occupations
 0.000  0.000  0.000  0.000  0.000
 0.000  0.000  0.000  0.000  0.000
 0.000  0.000  0.000  0.000  0.000
 0.000  0.000  0.000  0.000  0.000
 0.000  0.000  0.000  0.000  0.000
atom   24   Tr[ns(na)]=   3.0000000
atom   24   spin  1
eigenvalues:  0.6000000 0.6000000 0.6000000 0.6000000 0.6000000
 eigenvectors
 1   1.0000000  0.0000000  0.0000000  0.0000000  0.0000000
 2   0.0000000  1.0000000  0.0000000  0.0000000  0.0000000
 3   0.0000000  0.0000000  1.0000000  0.0000000  0.0000000
 4   0.0000000  0.0000000  0.0000000  1.0000000  0.0000000
 5   0.0000000  0.0000000  0.0000000  0.0000000  1.0000000
 occupations
 0.600  0.000  0.000  0.000  0.000
 0.000  0.600  0.000  0.000  0.000
 0.000  0.000  0.600  0.000  0.000
 0.000  0.000  0.000  0.600  0.000
 0.000  0.000  0.000  0.000  0.600
atom   24   spin  2
eigenvalues:  0.0000000 0.0000000 0.0000000 0.0000000 0.0000000
 eigenvectors
 1   1.0000000  0.0000000  0.0000000  0.0000000  0.0000000
 2   0.0000000  1.0000000  0.0000000  0.0000000  0.0000000
 3   0.0000000  0.0000000  1.0000000  0.0000000  0.0000000
 4   0.0000000  0.0000000  0.0000000  1.0000000  0.0000000
 5   0.0000000  0.0000000  0.0000000  0.0000000  1.0000000
 occupations
 0.000  0.000  0.000  0.000  0.000
 0.000  0.000  0.000  0.000  0.000
 0.000  0.000  0.000  0.000  0.000
 0.000  0.000  0.000  0.000  0.000
 0.000  0.000  0.000  0.000  0.000
nsum =  72.0000000
 exit write_ns
 Atomic wfc used for LDA+U Projector are NOT orthogonalized
     Starting wfc are  480 atomic wfcs

     total cpu time spent up to now is     26.87 secs

     per-process dynamical memory:   113.5 Mb

     Self-consistent Calculation

     iteration #  1     ecut=    30.00 Ry     beta=0.30
     Davidson diagonalization with overlap
     ethr =  1.00E-02,  avg # of iterations =  2.0
 enter write_ns
U( 1) =  0.0000      U( 2) =  3.1000      U( 3) =  0.0000
alpha( 1) =  0.0000      alpha( 2) =  0.0000      alpha( 3) =  0.0000
atom    1   Tr[ns(na)]=   2.9520803
atom    1   spin  1
eigenvalues:  0.2280147 0.3037623 0.3073166 0.3845729 0.4143760
 eigenvectors
 1  -0.0000000 -0.0000000  0.0805988  0.0000000  0.9967466
 2  -0.0000000 -0.0000000 -0.9967466  0.0000000  0.0805988
 3   0.0072078 -0.9539159  0.0000000  0.2999875 -0.0000000
 4   0.2434831  0.2926407  0.0000000  0.9247039 -0.0000000
 5  -0.9698784  0.0663768  0.0000000  0.2343717 -0.0000000
 occupations
 0.413 -0.001 -0.000 -0.007  0.000
-0.001  0.314 -0.000  0.023  0.000
-0.000 -0.000  0.303  0.000 -0.006
-0.007  0.023  0.000  0.379 -0.000
 0.000  0.000 -0.006 -0.000  0.229
atom    1   spin  2
eigenvalues:  0.1665490 0.2318432 0.2342502 0.3261795 0.3552159
 eigenvectors
 1  -0.0000000 -0.0000000  0.1539651  0.0000000  0.9880763
 2  -0.0000000 -0.0000000 -0.9880763  0.0000000  0.1539651
 3  -0.0108461 -0.9627617  0.0000000  0.2701339 -0.0000000
 4   0.2527325  0.2587393  0.0000000  0.9322984 -0.0000000
 5  -0.9674754  0.0783834  0.0000000  0.2405148 -0.0000000
 occupations
 0.353 -0.003 -0.000 -0.006  0.000
-0.003  0.241 -0.000  0.024  0.000
-0.000 -0.000  0.230  0.000 -0.010
-0.006  0.024  0.000  0.321 -0.000
 0.000  0.000 -0.010 -0.000  0.168
atom    2   Tr[ns(na)]=   3.4908498
atom    2   spin  1
eigenvalues:  0.2988831 0.3693090 0.3904049 0.4309971 0.4817227
 eigenvectors
 1  -0.0000000 -0.0000000 -0.0146208  0.0000000  0.9998931
 2   0.0226080 -0.5735630 -0.0000000  0.8188494 -0.0000000
 3   0.0000000 -0.0000000  0.9998931  0.0000000  0.0146208
 4   0.3407642  0.7744322 -0.0000000  0.5330427  0.0000000
 5   0.9398769 -0.2669835 -0.0000000 -0.2129581  0.0000000
 occupations
 0.476 -0.012 -0.000 -0.011  0.000
-0.012  0.414 -0.000  0.032  0.000
-0.000 -0.000  0.390  0.000  0.001
-0.011  0.032  0.000  0.392 -0.000
 0.000  0.000  0.001 -0.000  0.299
atom    2   spin  2
eigenvalues:  0.2038669 0.2725130 0.2890250 0.3487686 0.4053596
 eigenvectors
 1  -0.0000000 -0.0000000  0.0765726  0.0000000  0.9970640
 2  -0.0466229 -0.7799412 -0.0000000  0.6241138 -0.0000000
 3  -0.0000000  0.0000000 -0.9970640 -0.0000000  0.0765726
 4   0.2453313  0.5967164 -0.0000000  0.7640302 -0.0000000
 5  -0.9683175  0.1887359  0.0000000  0.1635234 -0.0000000
 occupations
 0.402 -0.013 -0.000 -0.007  0.000
-0.013  0.304 -0.000  0.039  0.000
-0.000 -0.000  0.289  0.000 -0.007
-0.007  0.039  0.000  0.321 -0.000
 0.000  0.000 -0.007 -0.000  0.204
atom    3   Tr[ns(na)]=   2.9851365
atom    3   spin  1
eigenvalues:  0.2174607 0.3144887 0.3201725 0.3795018 0.4245795
 eigenvectors
 1   0.0060610  0.0074049  0.0868240  0.0087288  0.9961395
 2   0.0042385 -0.0065415 -0.9954719  0.0387484  0.0864491
 3  -0.0009674  0.9351688 -0.0200961 -0.3536244 -0.0020955
 4  -0.1818877 -0.3483186 -0.0329818 -0.9188522  0.0146222
 5  -0.9832910  0.0635288  0.0023648  0.1705367  0.0038101
 occupations
 0.423 -0.003  0.000 -0.008 -0.001
-0.003  0.328  0.001  0.020 -0.001
 0.000  0.001  0.314  0.002 -0.008
-0.008  0.020  0.002  0.373 -0.002
-0.001 -0.001 -0.008 -0.002  0.218
atom    3   spin  2
eigenvalues:  0.1604087 0.2388039 0.2432899 0.3224640 0.3639668
 eigenvectors
 1   0.0041758  0.0066158  0.1478522  0.0050013  0.9889659
 2   0.0033502  0.0106026 -0.9887862  0.0194967  0.1476417
 3   0.0160693  0.9565479  0.0037430 -0.2910549 -0.0055545
 4  -0.1957330 -0.2822476 -0.0206275 -0.9388760  0.0105465
 5  -0.9805109  0.0720842  0.0014303  0.1827396  0.0025199
 occupations
 0.362 -0.004  0.000 -0.007 -0.001
-0.004  0.250  0.000  0.023 -0.001
 0.000  0.000  0.237  0.002 -0.011
-0.007  0.023  0.002  0.317 -0.001
-0.001 -0.001 -0.011 -0.001  0.162
atom    4   Tr[ns(na)]=   3.0177508
atom    4   spin  1
eigenvalues:  0.2161675 0.3216122 0.3298386 0.3763206 0.4335712
 eigenvectors
 1   0.0161380  0.0121357  0.0592694  0.0312277  0.9975491
 2   0.0365923 -0.2181086 -0.9411107  0.2507738  0.0501272
 3   0.0147599 -0.8464222  0.3106122  0.4317308 -0.0219117
 4  -0.1980861 -0.4796120 -0.1195383 -0.8453577  0.0426051
 5   0.9792572 -0.0763090  0.0053279 -0.1873933 -0.0093641
 occupations
 0.431 -0.003  0.002 -0.011 -0.003
-0.003  0.341  0.001  0.021 -0.002
 0.002  0.001  0.323  0.006 -0.007
-0.011  0.021  0.006  0.366 -0.005
-0.003 -0.002 -0.007 -0.005  0.217
atom    4   spin  2
eigenvalues:  0.1585776 0.2422550 0.2501701 0.3182698 0.3709684
 eigenvectors
 1   0.0113590  0.0120160  0.1201553  0.0184279  0.9924463
 2   0.0195806 -0.1025877 -0.9801797  0.1206066  0.1174487
 3  -0.0090848 -0.9303677  0.1375796  0.3395156 -0.0115926
 4  -0.2124330 -0.3422846 -0.0766431 -0.9114630  0.0327789
 5   0.9768711 -0.0811699  0.0028623 -0.1976835 -0.0068739
 occupations
 0.369 -0.005  0.001 -0.010 -0.002
-0.005  0.259  0.001  0.023 -0.002
 0.001  0.001  0.242  0.005 -0.010
-0.010  0.023  0.005  0.311 -0.004
-0.002 -0.002 -0.010 -0.004  0.160
atom    5   Tr[ns(na)]=   2.9851365
atom    5   spin  1
eigenvalues:  0.2174607 0.3144887 0.3201725 0.3795018 0.4245795
 eigenvectors
 1  -0.0060610 -0.0074049  0.0868240 -0.0087288  0.9961395
 2   0.0042385 -0.0065415  0.9954719  0.0387484 -0.0864491
 3   0.0009674 -0.9351688 -0.0200961  0.3536244 -0.0020955
 4  -0.1818877 -0.3483186  0.0329818 -0.9188522 -0.0146222
 5  -0.9832910  0.0635288 -0.0023648  0.1705367 -0.0038101
 occupations
 0.423 -0.003 -0.000 -0.008  0.001
-0.003  0.328 -0.001  0.020  0.001
-0.000 -0.001  0.314 -0.002 -0.008
-0.008  0.020 -0.002  0.373  0.002
 0.001  0.001 -0.008  0.002  0.218
atom    5   spin  2
eigenvalues:  0.1604087 0.2388039 0.2432899 0.3224640 0.3639668
 eigenvectors
 1  -0.0041758 -0.0066158  0.1478522 -0.0050013  0.9889659
 2   0.0033502  0.0106026  0.9887862  0.0194967 -0.1476417
 3  -0.0160693 -0.9565479  0.0037430  0.2910549 -0.0055545
 4  -0.1957330 -0.2822476  0.0206275 -0.9388760 -0.0105465
 5  -0.9805109  0.0720842 -0.0014303  0.1827396 -0.0025199
 occupations
 0.362 -0.004 -0.000 -0.007  0.001
-0.004  0.250 -0.000  0.023  0.001
-0.000 -0.000  0.237 -0.002 -0.011
-0.007  0.023 -0.002  0.317  0.001
 0.001  0.001 -0.011  0.001  0.162
atom    6   Tr[ns(na)]=   3.0177508
atom    6   spin  1
eigenvalues:  0.2161675 0.3216122 0.3298386 0.3763206 0.4335712
 eigenvectors
 1  -0.0161380 -0.0121357  0.0592694 -0.0312277  0.9975491
 2   0.0365923 -0.2181086  0.9411107  0.2507738 -0.0501272
 3  -0.0147599  0.8464222  0.3106122 -0.4317308 -0.0219117
 4  -0.1980861 -0.4796120  0.1195383 -0.8453577 -0.0426051
 5   0.9792572 -0.0763090 -0.0053279 -0.1873933  0.0093641
 occupations
 0.431 -0.003 -0.002 -0.011  0.003
-0.003  0.341 -0.001  0.021  0.002
-0.002 -0.001  0.323 -0.006 -0.007
-0.011  0.021 -0.006  0.366  0.005
 0.003  0.002 -0.007  0.005  0.217
atom    6   spin  2
eigenvalues:  0.1585776 0.2422550 0.2501701 0.3182698 0.3709684
 eigenvectors
 1  -0.0113590 -0.0120160  0.1201553 -0.0184279  0.9924463
 2   0.0195806 -0.1025877  0.9801797  0.1206066 -0.1174487
 3   0.0090848  0.9303677  0.1375796 -0.3395156 -0.0115926
 4  -0.2124330 -0.3422846  0.0766431 -0.9114630 -0.0327789
 5   0.9768711 -0.0811699 -0.0028623 -0.1976835  0.0068739
 occupations
 0.369 -0.005 -0.001 -0.010  0.002
-0.005  0.259 -0.001  0.023  0.002
-0.001 -0.001  0.242 -0.005 -0.010
-0.010  0.023 -0.005  0.311  0.004
 0.002  0.002 -0.010  0.004  0.160
atom    7   Tr[ns(na)]=   3.5045069
atom    7   spin  1
eigenvalues:  0.2721677 0.3758055 0.4137444 0.4347854 0.4859790
 eigenvectors
 1  -0.0918768 -0.0084384 -0.1095563 -0.2685418  0.9525598
 2  -0.1673861  0.1887075 -0.6230734 -0.6856198 -0.2794215
 3   0.1094078  0.8529947  0.4621702 -0.2161526  0.0103276
 4   0.0188030  0.4809734 -0.6011371  0.6276742  0.1138875
 5  -0.9753035  0.0733682  0.1575113  0.1308202 -0.0384245
 occupations
 0.480 -0.004 -0.017 -0.017  0.013
-0.004  0.418 -0.001  0.012  0.004
-0.017 -0.001  0.407 -0.027  0.006
-0.017  0.012 -0.027  0.395  0.030
 0.013  0.004  0.006  0.030  0.283
atom    7   spin  2
eigenvalues:  0.1847485 0.2748188 0.3049271 0.3474830 0.4100476
 eigenvectors
 1  -0.0675322 -0.0115835 -0.0215890 -0.1742287  0.9820812
 2  -0.1401161  0.1825301 -0.8313244 -0.4930803 -0.1132332
 3  -0.0462833 -0.8900167 -0.3567377  0.2787231  0.0279252
 4  -0.1633779 -0.4087924  0.4202388 -0.7800706 -0.1452086
 5   0.9731251 -0.0854847 -0.0676102 -0.2007971  0.0287989
 occupations
 0.404 -0.005 -0.014 -0.019  0.011
-0.005  0.312 -0.002  0.018  0.004
-0.014 -0.002  0.292 -0.025 -0.003
-0.019  0.018 -0.025  0.324  0.023
 0.011  0.004 -0.003  0.023  0.190
atom    8   Tr[ns(na)]=   2.9375126
atom    8   spin  1
eigenvalues:  0.2244652 0.3000019 0.3085963 0.3840959 0.4121432
 eigenvectors
 1  -0.0116210 -0.0146980  0.0990825 -0.0129550  0.9948185
 2  -0.0072548  0.0589408  0.9930429  0.0279847 -0.0977551
 3  -0.0042404 -0.9633850  0.0481897  0.2632566 -0.0156545
 4  -0.2627845 -0.2509364  0.0369778 -0.9306439 -0.0225794
 5  -0.9647480  0.0723199 -0.0189451  0.2522835 -0.0050290
 occupations
 0.410 -0.002  0.001 -0.007  0.002
-0.002  0.314 -0.001  0.019  0.002
 0.001 -0.001  0.299 -0.003 -0.008
-0.007  0.019 -0.003  0.381  0.003
 0.002  0.002 -0.008  0.003  0.225
atom    8   spin  2
eigenvalues:  0.1643197 0.2293813 0.2351450 0.3259766 0.3533876
 eigenvectors
 1  -0.0082995 -0.0130396  0.1696618 -0.0067086  0.9853583
 2  -0.0026291  0.0740560  0.9828822  0.0127810 -0.1681905
 3  -0.0173241 -0.9667462  0.0657366  0.2454999 -0.0225865
 4  -0.2693629 -0.2303575  0.0260234 -0.9345805 -0.0161609
 5  -0.9628435  0.0817488 -0.0126093  0.2570618 -0.0031068
 occupations
 0.351 -0.004  0.001 -0.006  0.001
-0.004  0.241 -0.001  0.022  0.001
 0.001 -0.001  0.228 -0.003 -0.011
-0.006  0.022 -0.003  0.322  0.002
 0.001  0.001 -0.011  0.002  0.166
atom    9   Tr[ns(na)]=   2.9886767
atom    9   spin  1
eigenvalues:  0.2086249 0.3188267 0.3285745 0.3724125 0.4307060
 eigenvectors
 1  -0.0000000 -0.0000000  0.0664499  0.0000000  0.9977898
 2  -0.0000000 -0.0000000 -0.9977898  0.0000000  0.0664499
 3   0.0272763 -0.8945899  0.0000000  0.4460549 -0.0000000
 4   0.1969608  0.4422831  0.0000000  0.8749812 -0.0000000
 5  -0.9800319  0.0639891  0.0000000  0.1882630 -0.0000000
 occupations
 0.428 -0.003 -0.000 -0.011  0.000
-0.003  0.338 -0.000  0.018  0.000
-0.000 -0.000  0.318  0.000 -0.007
-0.011  0.018  0.000  0.366 -0.000
 0.000  0.000 -0.007 -0.000  0.209
atom    9   spin  2
eigenvalues:  0.1546919 0.2399285 0.2495048 0.3165392 0.3688677
 eigenvectors
 1  -0.0000000 -0.0000000  0.1223200  0.0000000  0.9924907
 2  -0.0000000 -0.0000000 -0.9924907  0.0000000  0.1223200
 3  -0.0055728 -0.9474968  0.0000000  0.3197167 -0.0000000
 4   0.2081135  0.3116221  0.0000000  0.9271356 -0.0000000
 5  -0.9780888  0.0717041  0.0000000  0.1954503 -0.0000000
 occupations
 0.367 -0.004 -0.000 -0.010  0.000
-0.004  0.257 -0.000  0.021  0.000
-0.000 -0.000  0.239  0.000 -0.010
-0.010  0.021  0.000  0.312 -0.000
 0.000  0.000 -0.010 -0.000  0.156
atom   10   Tr[ns(na)]=   2.9828960
atom   10   spin  1
eigenvalues:  0.2138647 0.3152495 0.3224110 0.3779447 0.4251199
 eigenvectors
 1  -0.0000000 -0.0000000  0.0923452  0.0000000  0.9957270
 2  -0.0000000 -0.0000000 -0.9957270  0.0000000  0.0923452
 3   0.0019963 -0.9377845  0.0000000  0.3472122 -0.0000000
 4   0.1793886  0.3419163  0.0000000  0.9224494 -0.0000000
 5  -0.9837763  0.0604445  0.0000000  0.1689104 -0.0000000
 occupations
 0.424 -0.003 -0.000 -0.008  0.000
-0.003  0.329 -0.000  0.019  0.000
-0.000 -0.000  0.314  0.000 -0.009
-0.008  0.019  0.000  0.373 -0.000
 0.000  0.000 -0.009 -0.000  0.215
atom   10   spin  2
eigenvalues:  0.1583085 0.2392823 0.2447599 0.3214544 0.3645011
 eigenvectors
 1  -0.0000000 -0.0000000  0.1506829  0.0000000  0.9885821
 2  -0.0000000 -0.0000000 -0.9885821  0.0000000  0.1506829
 3  -0.0156616 -0.9590853  0.0000000  0.2826837 -0.0000000
 4   0.1912365  0.2746260  0.0000000  0.9423424 -0.0000000
 5  -0.9814190  0.0688180  0.0000000  0.1791110 -0.0000000
 occupations
 0.363 -0.004 -0.000 -0.007  0.000
-0.004  0.251 -0.000  0.021  0.000
-0.000 -0.000  0.237  0.000 -0.012
-0.007  0.021  0.000  0.317 -0.000
 0.000  0.000 -0.012 -0.000  0.160
atom   11   Tr[ns(na)]=   3.5045069
atom   11   spin  1
eigenvalues:  0.2721677 0.3758055 0.4137444 0.4347854 0.4859790
 eigenvectors
 1   0.0918768  0.0084384 -0.1095563  0.2685418  0.9525598
 2  -0.1673861  0.1887075  0.6230734 -0.6856198  0.2794215
 3   0.1094078  0.8529947 -0.4621702 -0.2161526 -0.0103276
 4  -0.0188030 -0.4809734 -0.6011371 -0.6276742  0.1138875
 5  -0.9753035  0.0733682 -0.1575113  0.1308202  0.0384245
 occupations
 0.480 -0.004  0.017 -0.017 -0.013
-0.004  0.418  0.001  0.012 -0.004
 0.017  0.001  0.407  0.027  0.006
-0.017  0.012  0.027  0.395 -0.030
-0.013 -0.004  0.006 -0.030  0.283
atom   11   spin  2
eigenvalues:  0.1847485 0.2748188 0.3049271 0.3474830 0.4100476
 eigenvectors
 1   0.0675322  0.0115835 -0.0215890  0.1742287  0.9820812
 2  -0.1401161  0.1825301  0.8313244 -0.4930803  0.1132332
 3   0.0462833  0.8900167 -0.3567377 -0.2787231  0.0279252
 4  -0.1633779 -0.4087924 -0.4202388 -0.7800706  0.1452086
 5   0.9731251 -0.0854847  0.0676102 -0.2007971 -0.0287989
 occupations
 0.404 -0.005  0.014 -0.019 -0.011
-0.005  0.312  0.002  0.018 -0.004
 0.014  0.002  0.292  0.025 -0.003
-0.019  0.018  0.025  0.324 -0.023
-0.011 -0.004 -0.003 -0.023  0.190
atom   12   Tr[ns(na)]=   2.9375126
atom   12   spin  1
eigenvalues:  0.2244652 0.3000019 0.3085963 0.3840959 0.4121432
 eigenvectors
 1   0.0116210  0.0146980  0.0990825  0.0129550  0.9948185
 2  -0.0072548  0.0589408 -0.9930429  0.0279847  0.0977551
 3   0.0042404  0.9633850  0.0481897 -0.2632566 -0.0156545
 4  -0.2627845 -0.2509364 -0.0369778 -0.9306439  0.0225794
 5  -0.9647480  0.0723199  0.0189451  0.2522835  0.0050290
 occupations
 0.410 -0.002 -0.001 -0.007 -0.002
-0.002  0.314  0.001  0.019 -0.002
-0.001  0.001  0.299  0.003 -0.008
-0.007  0.019  0.003  0.381 -0.003
-0.002 -0.002 -0.008 -0.003  0.225
atom   12   spin  2
eigenvalues:  0.1643197 0.2293813 0.2351450 0.3259766 0.3533876
 eigenvectors
 1   0.0082995  0.0130396  0.1696618  0.0067086  0.9853583
 2  -0.0026291  0.0740560 -0.9828822  0.0127810  0.1681905
 3   0.0173241  0.9667462  0.0657366 -0.2454999 -0.0225865
 4  -0.2693629 -0.2303575 -0.0260234 -0.9345805  0.0161609
 5  -0.9628435  0.0817488  0.0126093  0.2570618  0.0031068
 occupations
 0.351 -0.004 -0.001 -0.006 -0.001
-0.004  0.241  0.001  0.022 -0.001
-0.001  0.001  0.228  0.003 -0.011
-0.006  0.022  0.003  0.322 -0.002
-0.001 -0.001 -0.011 -0.002  0.166
atom   13   Tr[ns(na)]=   2.9880622
atom   13   spin  1
eigenvalues:  0.1988948 0.3257019 0.3311242 0.3731354 0.4296436
 eigenvectors
 1   0.0101189 -0.0035956 -0.1158617  0.0044886  0.9931972
 2   0.0252583 -0.9570507  0.1082797 -0.2675612  0.0101185
 3   0.0057559  0.0901240  0.9858992  0.0815055  0.1149096
 4   0.0055303  0.2746390  0.0528929 -0.9600074  0.0114468
 5  -0.9995979 -0.0221812  0.0075328 -0.0115574  0.0110348
 occupations
 0.430  0.002 -0.001  0.001 -0.002
 0.002  0.329  0.001 -0.012  0.001
-0.001  0.001  0.329 -0.002  0.015
 0.001 -0.012 -0.002  0.369 -0.001
-0.002  0.001  0.015 -0.001  0.201
atom   13   spin  2
eigenvalues:  0.1486496 0.2454387 0.2504678 0.3176658 0.3673403
 eigenvectors
 1   0.0077728 -0.0024364 -0.1626628  0.0024221  0.9866451
 2   0.0307514 -0.9643239  0.1310466 -0.2271096  0.0195389
 3   0.0024256  0.1228117  0.9775791  0.0568209  0.1613128
 4  -0.0196408  0.2320296  0.0261773 -0.9721297  0.0074299
 5  -0.9993009 -0.0339564  0.0046258  0.0122747  0.0085212
 occupations
 0.367  0.004 -0.000 -0.000 -0.002
 0.004  0.250  0.001 -0.016  0.000
-0.000  0.001  0.248 -0.002  0.016
-0.000 -0.016 -0.002  0.314 -0.001
-0.002  0.000  0.016 -0.001  0.151
atom   14   Tr[ns(na)]=   2.9711400
atom   14   spin  1
eigenvalues:  0.2100417 0.3179240 0.3186560 0.3782117 0.4227540
 eigenvectors
 1   0.0044516 -0.0046767 -0.1143729  0.0038444  0.9934095
 2   0.0257183 -0.9579076  0.0404418 -0.2830455  0.0011267
 3   0.0010747  0.0327914  0.9924102  0.0313733  0.1142860
 4   0.0790178 -0.2812579 -0.0201323  0.9561306 -0.0076962
 5   0.9965309  0.0470088 -0.0000067 -0.0685606 -0.0039797
 occupations
 0.422  0.004 -0.000 -0.003 -0.001
 0.004  0.323  0.000 -0.017  0.001
-0.000  0.000  0.317 -0.001  0.012
-0.003 -0.017 -0.001  0.374 -0.001
-0.001  0.001  0.012 -0.001  0.211
atom   14   spin  2
eigenvalues:  0.1559987 0.2412747 0.2419543 0.3219190 0.3624058
 eigenvectors
 1   0.0031991 -0.0042261 -0.1671892  0.0021114  0.9859083
 2   0.0300323 -0.9596542  0.1344437 -0.2443798  0.0191112
 3  -0.0023111  0.1284404  0.9766442  0.0456251  0.1660786
 4  -0.1061261  0.2438956  0.0117760 -0.9638899  0.0054510
 5  -0.9938912 -0.0553528 -0.0000041  0.0954389  0.0027826
 occupations
 0.362  0.005 -0.000 -0.003 -0.001
 0.005  0.246  0.000 -0.020  0.000
-0.000  0.000  0.240 -0.001  0.014
-0.003 -0.020 -0.001  0.317 -0.001
-0.001  0.000  0.014 -0.001  0.158
atom   15   Tr[ns(na)]=   2.9849638
atom   15   spin  1
eigenvalues:  0.2068057 0.3214621 0.3233299 0.3764915 0.4279185
 eigenvectors
 1  -0.0000000 -0.0000000 -0.1072890  0.0000000  0.9942279
 2  -0.0000000  0.0000000  0.9942279  0.0000000  0.1072890
 3  -0.0126044  0.9405976 -0.0000000  0.3392894 -0.0000000
 4  -0.1074978  0.3360752 -0.0000000 -0.9356803  0.0000000
 5   0.9941254  0.0482666 -0.0000000 -0.0968761  0.0000000
 occupations
 0.427  0.003 -0.000 -0.005  0.000
 0.003  0.330 -0.000 -0.017  0.000
-0.000 -0.000  0.320  0.000  0.012
-0.005 -0.017  0.000  0.371 -0.000
 0.000  0.000  0.012 -0.000  0.208
atom   15   spin  2
eigenvalues:  0.1543809 0.2430404 0.2447120 0.3203528 0.3664699
 eigenvectors
 1  -0.0000000 -0.0000000 -0.1609945  0.0000000  0.9869553
 2  -0.0000000  0.0000000  0.9869553  0.0000000  0.1609945
 3  -0.0238741  0.9613632 -0.0000000  0.2742460 -0.0000000
 4   0.1274430 -0.2691594  0.0000000  0.9546264 -0.0000000
 5  -0.9915585 -0.0577416  0.0000000  0.1160930 -0.0000000
 occupations
 0.366  0.004 -0.000 -0.005  0.000
 0.004  0.251 -0.000 -0.020  0.000
-0.000 -0.000  0.241  0.000  0.014
-0.005 -0.020  0.000  0.315 -0.000
 0.000  0.000  0.014 -0.000  0.157
atom   16   Tr[ns(na)]=   2.9779031
atom   16   spin  1
eigenvalues:  0.2099290 0.3183586 0.3202398 0.3776468 0.4257896
 eigenvectors
 1  -0.0000000 -0.0000000 -0.1092396  0.0000000  0.9940154
 2  -0.0000000  0.0000000  0.9940154  0.0000000  0.1092396
 3  -0.0151586  0.9457532 -0.0000000  0.3245322 -0.0000000
 4  -0.1173764  0.3206423 -0.0000000 -0.9398996  0.0000000
 5   0.9929718  0.0523400 -0.0000000 -0.1061486  0.0000000
 occupations
 0.425  0.003 -0.000 -0.005  0.000
 0.003  0.326 -0.000 -0.018  0.000
-0.000 -0.000  0.317  0.000  0.012
-0.005 -0.018  0.000  0.372 -0.000
 0.000  0.000  0.012 -0.000  0.211
atom   16   spin  2
eigenvalues:  0.1561193 0.2412485 0.2424051 0.3213223 0.3648441
 eigenvectors
 1  -0.0000000 -0.0000000 -0.1661393  0.0000000  0.9861023
 2  -0.0000000  0.0000000  0.9861023  0.0000000  0.1661393
 3  -0.0260521  0.9627200 -0.0000000  0.2692424 -0.0000000
 4   0.1374923 -0.2633234  0.0000000  0.9548595 -0.0000000
 5  -0.9901602 -0.0618949  0.0000000  0.1255064 -0.0000000
 occupations
 0.364  0.005 -0.000 -0.005  0.000
 0.005  0.248 -0.000 -0.021  0.000
-0.000 -0.000  0.239  0.000  0.014
-0.005 -0.021  0.000  0.316 -0.000
 0.000  0.000  0.014 -0.000  0.158
atom   17   Tr[ns(na)]=   2.9880622
atom   17   spin  1
eigenvalues:  0.1988948 0.3257019 0.3311242 0.3731354 0.4296436
 eigenvectors
 1  -0.0101189  0.0035956 -0.1158617 -0.0044886  0.9931972
 2  -0.0252583  0.9570507  0.1082797  0.2675612  0.0101185
 3   0.0057559  0.0901240 -0.9858992  0.0815055 -0.1149096
 4   0.0055303  0.2746390 -0.0528929 -0.9600074 -0.0114468
 5  -0.9995979 -0.0221812 -0.0075328 -0.0115574 -0.0110348
 occupations
 0.430  0.002  0.001  0.001  0.002
 0.002  0.329 -0.001 -0.012 -0.001
 0.001 -0.001  0.329  0.002  0.015
 0.001 -0.012  0.002  0.369  0.001
 0.002 -0.001  0.015  0.001  0.201
atom   17   spin  2
eigenvalues:  0.1486496 0.2454387 0.2504678 0.3176658 0.3673403
 eigenvectors
 1  -0.0077728  0.0024364 -0.1626628 -0.0024221  0.9866451
 2  -0.0307514  0.9643239  0.1310466  0.2271096  0.0195389
 3   0.0024256  0.1228117 -0.9775791  0.0568209 -0.1613128
 4  -0.0196408  0.2320296 -0.0261773 -0.9721297 -0.0074299
 5  -0.9993009 -0.0339564 -0.0046258  0.0122747 -0.0085212
 occupations
 0.367  0.004  0.000 -0.000  0.002
 0.004  0.250 -0.001 -0.016 -0.000
 0.000 -0.001  0.248  0.002  0.016
-0.000 -0.016  0.002  0.314  0.001
 0.002 -0.000  0.016  0.001  0.151
atom   18   Tr[ns(na)]=   2.9711400
atom   18   spin  1
eigenvalues:  0.2100417 0.3179240 0.3186560 0.3782117 0.4227540
 eigenvectors
 1  -0.0044516  0.0046767 -0.1143729 -0.0038444  0.9934095
 2  -0.0257183  0.9579076  0.0404418  0.2830455  0.0011267
 3   0.0010747  0.0327914 -0.9924102  0.0313733 -0.1142860
 4   0.0790178 -0.2812579  0.0201323  0.9561306  0.0076962
 5   0.9965309  0.0470088  0.0000067 -0.0685606  0.0039797
 occupations
 0.422  0.004  0.000 -0.003  0.001
 0.004  0.323 -0.000 -0.017 -0.001
 0.000 -0.000  0.317  0.001  0.012
-0.003 -0.017  0.001  0.374  0.001
 0.001 -0.001  0.012  0.001  0.211
atom   18   spin  2
eigenvalues:  0.1559987 0.2412747 0.2419543 0.3219190 0.3624058
 eigenvectors
 1  -0.0031991  0.0042261 -0.1671892 -0.0021114  0.9859083
 2  -0.0300323  0.9596542  0.1344437  0.2443798  0.0191112
 3  -0.0023111  0.1284404 -0.9766442  0.0456251 -0.1660786
 4  -0.1061261  0.2438956 -0.0117760 -0.9638899 -0.0054510
 5  -0.9938912 -0.0553528  0.0000041  0.0954389 -0.0027826
 occupations
 0.362  0.005  0.000 -0.003  0.001
 0.005  0.246 -0.000 -0.020 -0.000
 0.000 -0.000  0.240  0.001  0.014
-0.003 -0.020  0.001  0.317  0.001
 0.001 -0.000  0.014  0.001  0.158
atom   19   Tr[ns(na)]=   2.9740156
atom   19   spin  1
eigenvalues:  0.2105878 0.3177615 0.3196440 0.3772945 0.4241340
 eigenvectors
 1  -0.0000000 -0.0000000 -0.1088607  0.0000000  0.9940570
 2  -0.0254082  0.9462486  0.0000000  0.3224408  0.0000000
 3   0.0000000 -0.0000000  0.9940570 -0.0000000  0.1088607
 4  -0.0798732  0.3195922 -0.0000000 -0.9441828  0.0000000
 5   0.9964812  0.0497444 -0.0000000 -0.0674597  0.0000000
 occupations
 0.424  0.004 -0.000 -0.003  0.000
 0.004  0.324 -0.000 -0.018  0.000
-0.000 -0.000  0.318  0.000  0.012
-0.003 -0.018  0.000  0.371 -0.000
 0.000  0.000  0.012 -0.000  0.212
atom   19   spin  2
eigenvalues:  0.1564477 0.2411340 0.2422241 0.3211698 0.3636183
 eigenvectors
 1  -0.0000000 -0.0000000 -0.1635858  0.0000000  0.9865291
 2  -0.0305459  0.9622036  0.0000000  0.2706125  0.0000000
 3   0.0000000 -0.0000000  0.9865291 -0.0000000  0.1635858
 4   0.1056635 -0.2661133  0.0000000  0.9581330 -0.0000000
 5  -0.9939327 -0.0578609  0.0000000  0.0935411 -0.0000000
 occupations
 0.363  0.005 -0.000 -0.003  0.000
 0.005  0.247 -0.000 -0.021  0.000
-0.000 -0.000  0.240  0.000  0.014
-0.003 -0.021  0.000  0.316 -0.000
 0.000  0.000  0.014 -0.000  0.159
atom   20   Tr[ns(na)]=   2.9708571
atom   20   spin  1
eigenvalues:  0.2019406 0.3192924 0.3268485 0.3718231 0.4275045
 eigenvectors
 1  -0.0000000 -0.0000000 -0.1089667  0.0000000  0.9940454
 2  -0.0299733  0.9412759  0.0000000  0.3363053  0.0000000
 3   0.0000000 -0.0000000  0.9940454 -0.0000000  0.1089667
 4   0.0214029 -0.3357750  0.0000000  0.9416990 -0.0000000
 5  -0.9993215 -0.0354237  0.0000000  0.0100817 -0.0000000
 occupations
 0.427  0.003 -0.000 -0.000  0.000
 0.003  0.325 -0.000 -0.017  0.000
-0.000 -0.000  0.325  0.000  0.014
-0.000 -0.017  0.000  0.366 -0.000
 0.000  0.000  0.014 -0.000  0.203
atom   20   spin  2
eigenvalues:  0.1517953 0.2414421 0.2473651 0.3169093 0.3659362
 eigenvectors
 1  -0.0000000 -0.0000000 -0.1574340  0.0000000  0.9875295
 2  -0.0336650  0.9626022  0.0000000  0.2688190  0.0000000
 3   0.0000000 -0.0000000  0.9875295 -0.0000000  0.1574340
 4   0.0478232 -0.2671119  0.0000000  0.9624782 -0.0000000
 5  -0.9982883 -0.0452576  0.0000000  0.0370424 -0.0000000
 occupations
 0.366  0.005 -0.000 -0.001  0.000
 0.005  0.247 -0.000 -0.020  0.000
-0.000 -0.000  0.245  0.000  0.015
-0.001 -0.020  0.000  0.312 -0.000
 0.000  0.000  0.015 -0.000  0.154
atom   21   Tr[ns(na)]=   2.9769876
atom   21   spin  1
eigenvalues:  0.2106844 0.3186111 0.3188899 0.3775379 0.4257839
 eigenvectors
 1  -0.0026752  0.0032397 -0.1080512 -0.0029243  0.9941321
 2  -0.0054280  0.3820676 -0.9062402  0.1511966 -0.0993133
 3  -0.0176820  0.8600083  0.4084767  0.3023559  0.0424361
 4   0.1121097 -0.3337186  0.0141495  0.9358583  0.0056800
 5   0.9935201  0.0550591  0.0004310 -0.0994038  0.0022486
 occupations
 0.425  0.004  0.000 -0.004  0.001
 0.004  0.326 -0.000 -0.019 -0.000
 0.000 -0.000  0.317  0.001  0.012
-0.004 -0.019  0.001  0.371  0.001
 0.001 -0.000  0.012  0.001  0.212
atom   21   spin  2
eigenvalues:  0.1565002 0.2413401 0.2415831 0.3211742 0.3648828
 eigenvectors
 1  -0.0019546  0.0026760 -0.1649710 -0.0019889  0.9862909
 2  -0.0015854  0.1210506 -0.9780248  0.0443999 -0.1638304
 3  -0.0280137  0.9524934  0.1271896  0.2746381  0.0191883
 4   0.1322399 -0.2721573  0.0086363  0.9530736  0.0043669
 5   0.9908186  0.0634526  0.0005530 -0.1193702  0.0016432
 occupations
 0.364  0.005  0.000 -0.005  0.000
 0.005  0.248 -0.000 -0.022 -0.000
 0.000 -0.000  0.239  0.001  0.014
-0.005 -0.022  0.001  0.316  0.000
 0.000 -0.000  0.014  0.000  0.159
atom   22   Tr[ns(na)]=   2.9813812
atom   22   spin  1
eigenvalues:  0.2078179 0.3210713 0.3214489 0.3761636 0.4275834
 eigenvectors
 1  -0.0040987  0.0032270 -0.1075668 -0.0027595  0.9941803
 2  -0.0156254  0.8793680 -0.3287456  0.3420305 -0.0375384
 3   0.0093396 -0.3161508 -0.9380499 -0.0994100 -0.1007049
 4   0.0961159 -0.3523741  0.0204104  0.9306651  0.0063316
 5   0.9951952  0.0508194  0.0012275 -0.0835918  0.0038387
 occupations
 0.427  0.004  0.000 -0.004  0.001
 0.004  0.328 -0.000 -0.019 -0.000
 0.000 -0.000  0.320  0.001  0.012
-0.004 -0.019  0.001  0.370  0.001
 0.001 -0.000  0.012  0.001  0.209
atom   22   spin  2
eigenvalues:  0.1549079 0.2430200 0.2430869 0.3200269 0.3662545
 eigenvectors
 1  -0.0028803  0.0024972 -0.1617254 -0.0020534  0.9868263
 2  -0.0266682  0.9406505 -0.1847015  0.2816338 -0.0321418
 3   0.0079593 -0.1830069 -0.9693242 -0.0417955 -0.1584577
 4   0.1167528 -0.2795085  0.0118283  0.9529319  0.0049695
 5   0.9927668  0.0596139  0.0009496 -0.1041736  0.0026857
 occupations
 0.366  0.005  0.000 -0.004  0.001
 0.005  0.249 -0.000 -0.021 -0.000
 0.000 -0.000  0.241  0.001  0.014
-0.004 -0.021  0.001  0.314  0.001
 0.001 -0.000  0.014  0.001  0.157
atom   23   Tr[ns(na)]=   2.9769876
atom   23   spin  1
eigenvalues:  0.2106844 0.3186111 0.3188899 0.3775379 0.4257839
 eigenvectors
 1   0.0026752 -0.0032397 -0.1080512  0.0029243  0.9941321
 2  -0.0054280  0.3820676  0.9062402  0.1511966  0.0993133
 3   0.0176820 -0.8600083  0.4084767 -0.3023559  0.0424361
 4   0.1121097 -0.3337186 -0.0141495  0.9358583 -0.0056800
 5   0.9935201  0.0550591 -0.0004310 -0.0994038 -0.0022486
 occupations
 0.425  0.004 -0.000 -0.004 -0.001
 0.004  0.326  0.000 -0.019  0.000
-0.000  0.000  0.317 -0.001  0.012
-0.004 -0.019 -0.001  0.371 -0.001
-0.001  0.000  0.012 -0.001  0.212
atom   23   spin  2
eigenvalues:  0.1565002 0.2413401 0.2415831 0.3211742 0.3648828
 eigenvectors
 1   0.0019546 -0.0026760 -0.1649710  0.0019889  0.9862909
 2  -0.0015854  0.1210506  0.9780248  0.0443999  0.1638304
 3   0.0280137 -0.9524934  0.1271896 -0.2746381  0.0191883
 4   0.1322399 -0.2721573 -0.0086363  0.9530736 -0.0043669
 5   0.9908186  0.0634526 -0.0005530 -0.1193702 -0.0016432
 occupations
 0.364  0.005 -0.000 -0.005 -0.000
 0.005  0.248  0.000 -0.022  0.000
-0.000  0.000  0.239 -0.001  0.014
-0.005 -0.022 -0.001  0.316 -0.000
-0.000  0.000  0.014 -0.000  0.159
atom   24   Tr[ns(na)]=   2.9813812
atom   24   spin  1
eigenvalues:  0.2078179 0.3210713 0.3214489 0.3761636 0.4275834
 eigenvectors
 1   0.0040987 -0.0032270 -0.1075668  0.0027595  0.9941803
 2   0.0156254 -0.8793680 -0.3287456 -0.3420305 -0.0375384
 3   0.0093396 -0.3161508  0.9380499 -0.0994100  0.1007049
 4   0.0961159 -0.3523741 -0.0204104  0.9306651 -0.0063316
 5   0.9951952  0.0508194 -0.0012275 -0.0835918 -0.0038387
 occupations
 0.427  0.004 -0.000 -0.004 -0.001
 0.004  0.328  0.000 -0.019  0.000
-0.000  0.000  0.320 -0.001  0.012
-0.004 -0.019 -0.001  0.370 -0.001
-0.001  0.000  0.012 -0.001  0.209
atom   24   spin  2
eigenvalues:  0.1549079 0.2430200 0.2430869 0.3200269 0.3662545
 eigenvectors
 1   0.0028803 -0.0024972 -0.1617254  0.0020534  0.9868263
 2   0.0266682 -0.9406505 -0.1847015 -0.2816338 -0.0321418
 3   0.0079593 -0.1830069  0.9693242 -0.0417955  0.1584577
 4   0.1167528 -0.2795085 -0.0118283  0.9529319 -0.0049695
 5   0.9927668  0.0596139 -0.0009496 -0.1041736 -0.0026857
 occupations
 0.366  0.005 -0.000 -0.004 -0.001
 0.005  0.249  0.000 -0.021  0.000
-0.000  0.000  0.241 -0.001  0.014
-0.004 -0.021 -0.001  0.314 -0.001
-0.001  0.000  0.014 -0.001  0.157
nsum =  73.0471979
 exit write_ns

     negative rho (up, down):  0.905E-02 0.997E-02

     total cpu time spent up to now is     87.09 secs

     total energy              =   -5389.42940976 Ry
     Harris-Foulkes estimate   =   -5397.43583189 Ry
     estimated scf accuracy    <      51.14055725 Ry

     total magnetization       =     0.00 Bohr mag/cell
     absolute magnetization    =    11.88 Bohr mag/cell

     iteration #  2     ecut=    30.00 Ry     beta=0.30
     Davidson diagonalization with overlap
     ethr =  7.61E-03,  avg # of iterations =  1.0

     negative rho (up, down):  0.122E-01 0.134E-01

     total cpu time spent up to now is    138.78 secs

     total energy              =   -5386.97348010 Ry
     Harris-Foulkes estimate   =   -5391.59862141 Ry
     estimated scf accuracy    <      15.62746214 Ry

     total magnetization       =     0.01 Bohr mag/cell
     absolute magnetization    =     5.50 Bohr mag/cell

     iteration #  3     ecut=    30.00 Ry     beta=0.30
     Davidson diagonalization with overlap
     ethr =  2.33E-03,  avg # of iterations =  3.0

     negative rho (up, down):  0.117E-01 0.130E-01

     total cpu time spent up to now is    217.42 secs

     total energy              =   -5390.57018771 Ry
     Harris-Foulkes estimate   =   -5391.00088095 Ry
     estimated scf accuracy    <      20.71786381 Ry

     total magnetization       =    -0.05 Bohr mag/cell
     absolute magnetization    =     5.72 Bohr mag/cell

     iteration #  4     ecut=    30.00 Ry     beta=0.30
     Davidson diagonalization with overlap
     ethr =  2.33E-03,  avg # of iterations =  1.0

     negative rho (up, down):  0.109E-01 0.128E-01

     total cpu time spent up to now is    269.12 secs

     total energy              =   -5390.30527474 Ry
     Harris-Foulkes estimate   =   -5390.64632980 Ry
     estimated scf accuracy    <      11.25720517 Ry

     total magnetization       =     1.27 Bohr mag/cell
     absolute magnetization    =     6.44 Bohr mag/cell

     iteration #  5     ecut=    30.00 Ry     beta=0.30
     Davidson diagonalization with overlap
     ethr =  1.68E-03,  avg # of iterations =  1.0

     negative rho (up, down):  0.104E-01 0.151E-01

     total cpu time spent up to now is    320.64 secs

     total energy              =   -5390.24611482 Ry
     Harris-Foulkes estimate   =   -5390.48665140 Ry
     estimated scf accuracy    <       5.96515764 Ry

     total magnetization       =     1.39 Bohr mag/cell
     absolute magnetization    =     6.67 Bohr mag/cell

     iteration #  6     ecut=    30.00 Ry     beta=0.30
     Davidson diagonalization with overlap
     ethr =  8.88E-04,  avg # of iterations =  2.0

     negative rho (up, down):  0.104E-01 0.164E-01

     total cpu time spent up to now is    377.76 secs

     total energy              =   -5390.20862503 Ry
     Harris-Foulkes estimate   =   -5390.38951651 Ry
     estimated scf accuracy    <       3.46130601 Ry

     total magnetization       =     0.75 Bohr mag/cell
     absolute magnetization    =     7.08 Bohr mag/cell

     iteration #  7     ecut=    30.00 Ry     beta=0.30
     Davidson diagonalization with overlap
     ethr =  5.15E-04,  avg # of iterations =  5.5

     negative rho (up, down):  0.107E-01 0.167E-01

     total cpu time spent up to now is    453.66 secs

     total energy              =   -5390.16254423 Ry
     Harris-Foulkes estimate   =   -5390.24111908 Ry
     estimated scf accuracy    <       2.81922813 Ry

     total magnetization       =     0.36 Bohr mag/cell
     absolute magnetization    =     7.31 Bohr mag/cell

     iteration #  8     ecut=    30.00 Ry     beta=0.30
     Davidson diagonalization with overlap
     ethr =  4.20E-04,  avg # of iterations =  2.3

     negative rho (up, down):  0.108E-01 0.166E-01

     total cpu time spent up to now is    512.47 secs

     total energy              =   -5390.04107611 Ry
     Harris-Foulkes estimate   =   -5390.17862885 Ry
     estimated scf accuracy    <       2.46785511 Ry

     total magnetization       =     0.14 Bohr mag/cell
     absolute magnetization    =     7.38 Bohr mag/cell

     iteration #  9     ecut=    30.00 Ry     beta=0.30
     Davidson diagonalization with overlap
     ethr =  3.67E-04,  avg # of iterations =  5.4

     negative rho (up, down):  0.108E-01 0.166E-01

     total cpu time spent up to now is    589.12 secs

     total energy              =   -5390.03819034 Ry
     Harris-Foulkes estimate   =   -5390.06574683 Ry
     estimated scf accuracy    <       1.68430285 Ry

     total magnetization       =     0.03 Bohr mag/cell
     absolute magnetization    =     7.48 Bohr mag/cell

     iteration # 10     ecut=    30.00 Ry     beta=0.30
     Davidson diagonalization with overlap
     ethr =  2.51E-04,  avg # of iterations =  2.0

     negative rho (up, down):  0.108E-01 0.158E-01

     total cpu time spent up to now is    645.82 secs

     total energy              =   -5389.95703241 Ry
     Harris-Foulkes estimate   =   -5390.04106524 Ry
     estimated scf accuracy    <       1.52919613 Ry

     total magnetization       =     0.03 Bohr mag/cell
     absolute magnetization    =     7.47 Bohr mag/cell

     iteration # 11     ecut=    30.00 Ry     beta=0.30
     Davidson diagonalization with overlap
     ethr =  2.28E-04,  avg # of iterations =  4.3

     negative rho (up, down):  0.108E-01 0.156E-01

     total cpu time spent up to now is    717.25 secs

     total energy              =   -5390.02372650 Ry
     Harris-Foulkes estimate   =   -5390.00940561 Ry
     estimated scf accuracy    <       0.23664788 Ry

     total magnetization       =     0.00 Bohr mag/cell
     absolute magnetization    =     5.62 Bohr mag/cell

     iteration # 12     ecut=    30.00 Ry     beta=0.30
     Davidson diagonalization with overlap
     ethr =  3.52E-05,  avg # of iterations =  8.7

     negative rho (up, down):  0.108E-01 0.140E-01

     total cpu time spent up to now is    819.53 secs

     total energy              =   -5390.11180032 Ry
     Harris-Foulkes estimate   =   -5390.02606072 Ry
     estimated scf accuracy    <       0.21661428 Ry

     total magnetization       =     0.00 Bohr mag/cell
     absolute magnetization    =     5.57 Bohr mag/cell

     iteration # 13     ecut=    30.00 Ry     beta=0.30
     Davidson diagonalization with overlap
     ethr =  3.22E-05,  avg # of iterations =  3.6

     negative rho (up, down):  0.109E-01 0.132E-01

     total cpu time spent up to now is    886.87 secs

     total energy              =   -5390.15887886 Ry
     Harris-Foulkes estimate   =   -5390.13259909 Ry
     estimated scf accuracy    <       0.15278032 Ry

     total magnetization       =     0.00 Bohr mag/cell
     absolute magnetization    =     4.69 Bohr mag/cell

     iteration # 14     ecut=    30.00 Ry     beta=0.30
     Davidson diagonalization with overlap
     ethr =  2.27E-05,  avg # of iterations =  6.8

     negative rho (up, down):  0.112E-01 0.127E-01

     total cpu time spent up to now is    978.19 secs

     total energy              =   -5390.19057692 Ry
     Harris-Foulkes estimate   =   -5390.17649892 Ry
     estimated scf accuracy    <       0.06720758 Ry

     total magnetization       =     0.00 Bohr mag/cell
     absolute magnetization    =     3.92 Bohr mag/cell

     iteration # 15     ecut=    30.00 Ry     beta=0.30
     Davidson diagonalization with overlap
     ethr =  1.00E-05,  avg # of iterations =  5.9

     negative rho (up, down):  0.113E-01 0.123E-01

     total cpu time spent up to now is   1062.52 secs

     total energy              =   -5390.20490457 Ry
     Harris-Foulkes estimate   =   -5390.19720286 Ry
     estimated scf accuracy    <       0.04174313 Ry

     total magnetization       =    -0.00 Bohr mag/cell
[...]
     0.6608   0.6895   0.6970   0.7239   0.7430   0.7484   0.7660   0.8007
     0.8518   1.0432   1.0475   1.1203   1.1380   1.1752   1.1866   1.2309
     1.2474   1.2653   1.3099   1.3122   1.3468   1.3739   1.4072   1.4116
     1.4361   1.4444   1.5017   1.5035   1.5130   1.5280   1.5284   1.5777
     1.5934   1.5936   1.6253   1.6372   1.6518   1.6534   1.6700   1.6927
     1.7344   1.8644   1.8826   1.9499   1.9745   2.0265   2.0695   2.0733
     2.1131   2.1405   2.2002   2.2134   2.2350   2.2375   2.2410   2.3004
     2.3026   2.3430   2.3729   2.3894   2.3910   2.4034   2.4182   2.4367
     2.4375   2.4511   2.4859   2.4960   2.5019   2.5045   2.5107   2.5348
     2.5603   2.5603   2.5727   2.6246   2.6735   2.6915   2.7127   2.7129
     2.7215   2.7515   2.7828   2.8180   2.8292   2.8565   2.8864   2.9062
     2.9180   2.9445   2.9728   2.9996   3.0068   3.0358   3.0494   3.0809
     3.1010   3.1433   3.1452   3.2275   3.2306   3.2604   3.3036   3.3103
     3.3657   3.4325   3.5231   3.5389   3.5549   3.5890   3.6014   3.6210
     3.6917   3.7388   3.7696   3.7725   3.8068   3.8265   3.8527   3.8707
     3.8801   3.8977   3.9374   3.9533   3.9972   4.0346   4.0501   4.0964
     4.1071   4.1443   4.1795   4.2553   4.2699   4.3074   4.3921   4.3956
     6.2056   6.2772   6.4010   6.6223   6.7053   6.7766   6.7990   6.8221
     6.8277   6.8520   7.0755   7.0999   7.1060   7.2287   7.2891   7.3189
     7.3406   7.3862   7.4361   7.4677   7.5046   7.5841   7.5983   7.6087
     7.6122   7.6574   7.6797   7.6995   7.7615   7.7813   7.7944   7.8144
     7.8614   7.8638   7.8765   7.8786   7.9099   7.9219   7.9268   7.9289
     7.9347   7.9721   7.9822   7.9918   8.0296   8.0659   8.0921   8.0981
     8.1119   8.1209   8.1328   8.1371   8.1486   8.1665   8.1929   8.2006
     8.2517   8.2542   8.2968   8.3211   8.3433   8.3621   8.3733   8.4232
     8.4379   8.4666   8.4874

          k =-0.5000-0.5390-0.6582 ( 20080 PWs)   bands (ev):

   -60.5718 -60.5700 -60.3496 -59.9633 -59.9612 -59.9610 -59.9471 -59.9470
   -59.9198 -59.8256 -59.8222 -59.8123 -59.8019 -59.7892 -59.7890 -59.7165
   -59.7117 -59.7069 -59.7064 -59.7027 -59.6946 -59.6519 -59.6459 -59.6430
   -34.6036 -34.5559 -34.4791 -34.4706 -34.4138 -34.4051 -34.3356 -34.2665
   -34.1642 -33.9206 -33.9103 -33.9082 -33.9049 -33.9022 -33.9017 -33.8882
   -33.8737 -33.8714 -33.8702 -33.8548 -33.8395 -33.8203 -33.8141 -33.8106
   -33.8083 -33.8005 -33.7932 -33.7928 -33.7883 -33.7567 -33.7530 -33.7442
   -33.7412 -33.7387 -33.7320 -33.7181 -33.7170 -33.6996 -33.6938 -33.6790
   -33.6777 -33.6758 -33.6705 -33.6662 -33.6648 -33.6644 -33.6620 -33.6459
   -33.6429 -33.6356 -33.6309 -33.6244 -33.6238 -33.6220 -33.6172 -33.6154
   -33.6124 -33.6055 -33.5919 -33.5908 -33.5666 -33.5577 -33.5543 -33.5477
   -33.5347 -33.5340 -33.5224 -33.5207 -33.4954 -33.4875 -33.4770 -33.4682
   -17.7066 -13.4159 -13.2318 -13.2005 -13.1230 -13.1058 -13.0393 -12.9822
   -12.9535 -12.6863 -12.5734 -12.4815 -12.4661 -12.3737 -12.3244 -12.2903
   -12.2713 -12.2667 -12.2488 -12.2187 -12.1710 -12.1359 -12.1051 -12.0913
   -12.0844 -12.0806 -12.0527 -12.0311 -12.0139 -12.0054 -11.9993 -11.9796
   -11.9476 -11.9437 -11.9159 -11.9061 -11.8803 -11.8034 -11.7939 -11.7142
   -11.7071 -11.6972 -11.6842 -11.6795 -11.6689 -11.6125 -11.5927 -11.5905
   -11.5719 -11.5518 -11.5303 -11.4733 -11.4703 -11.4518 -11.4450 -11.4437
   -11.4297 -11.3908 -11.3819 -11.3692  -3.9757  -3.3697  -2.5374  -0.6488
    -0.6379  -0.4466  -0.4195  -0.3887  -0.3421  -0.3112  -0.3109  -0.2838
    -0.2307  -0.2227  -0.2185  -0.1922  -0.1791  -0.1629  -0.1184  -0.0176
    -0.0142  -0.0024   0.0136   0.0518   0.0678   0.0931   0.0936   0.1330
     0.2620   0.2713   0.2827   0.2987   0.3000   0.4008   0.4101   0.4640
     0.5106   0.5237   0.5593   0.6234   0.6449   0.6555   0.7096   0.7465
     0.7704   0.8035   0.8366   0.8375   0.8544   0.8647   0.8915   0.9257
     0.9350   0.9648   0.9714   1.0149   1.0382   1.0495   1.0634   1.0778
     1.1035   1.1150   1.1214   1.1529   1.1559   1.2020   1.2760   1.2788
     1.3002   1.3429   1.3495   1.3502   1.4130   1.4286   1.4678   1.4724
     1.4771   1.5264   1.5905   1.6174   1.6453   1.6641   1.6901   1.7517
     1.7519   1.7837   1.7866   1.8149   1.8379   1.8917   1.9020   1.9175
     1.9422   1.9902   1.9906   2.0147   2.1198   2.1534   2.1679   2.2225
     2.2757   2.2873   2.3181   2.3443   2.3605   2.3773   2.4184   2.4330
     2.4482   2.4513   2.4775   2.5189   2.5206   2.5456   2.5709   2.5915
     2.6361   2.6526   2.6805   2.7237   2.7405   2.7424   2.7567   2.7771
     2.7809   2.8139   2.8162   2.8639   2.8851   2.8916   2.9050   2.9327
     2.9433   2.9960   3.0504   3.0668   3.0832   3.1525   3.1877   3.2171
     3.2241   3.2285   3.2539   3.3412   3.3487   3.4437   3.4501   3.4548
     3.4841   3.5017   3.5282   3.5579   3.6096   3.6324   3.6475   3.6679
     3.6924   3.7345   3.7435   3.7716   3.7730   3.8137   3.8343   3.8470
     3.8622   3.9060   3.9126   3.9397   3.9705   3.9748   3.9906   3.9966
     4.0378   4.0458   4.0639   4.0987   4.1076   4.1144   4.1676   4.1758
     6.2105   6.2799   6.4063   6.6318   6.7086   6.7836   6.8101   6.8218
     6.8256   6.8538   7.0786   7.0999   7.1197   7.2443   7.3183   7.3395
     7.3572   7.4003   7.4538   7.4762   7.5178   7.5796   7.6074   7.6481
     7.6577   7.6637   7.7348   7.7394   7.7948   7.8268   7.8392   7.8524
     7.8657   7.8727   7.8810   7.8966   7.9137   7.9153   7.9230   7.9246
     7.9333   7.9496   7.9641   7.9997   8.0421   8.0874   8.0980   8.1030
     8.1074   8.1126   8.1158   8.1249   8.1719   8.1946   8.2267   8.2481
     8.2639   8.2808   8.2867   8.3191   8.3418   8.3436   8.4497   8.4540
     8.4626   8.5198   8.5237

     the Fermi energy is     5.5008 ev

!    total energy              =   -5390.21710133 Ry
     Harris-Foulkes estimate   =   -5390.21710133 Ry
     estimated scf accuracy    <          9.8E-09 Ry

     The total energy is the sum of the following terms:

     one-electron contribution =   -3532.98762449 Ry
     hartree contribution      =    1995.34239893 Ry
     xc contribution           =    -854.71338627 Ry
     ewald contribution        =   -3004.48624070 Ry
     Hubbard energy            =       6.62775119 Ry
     smearing contrib. (-TS)   =      -0.00000000 Ry

     total magnetization       =     0.00 Bohr mag/cell
     absolute magnetization    =     0.00 Bohr mag/cell

     convergence has been achieved in  33 iterations
 forces --- starting time for forces:
     forces       :      0.00s CPU      0.00s WALL (       1 calls)

     Forces acting on atoms (Ry/au):

 forces --- nonlocal contribution:
     forces       :      4.86s CPU      4.88s WALL (       2 calls)
 forces --- local contribution:
     forces       :      4.88s CPU      4.89s WALL (       3 calls)

     negative rho (up, down):  0.118E-01 0.118E-01
 forces --- NLCC contribution:
     forces       :      5.02s CPU      5.04s WALL (       4 calls)
 forces --- entering force_hub:
     forces       :      5.02s CPU      5.04s WALL (       5 calls)
           1  forces --- i/o, init_us_2, calbec, s_psi:
     forces       :      5.15s CPU      5.17s WALL (       6 calls)
           1  forces --- dn/dtau:
     forces       :     62.38s CPU     62.41s WALL (       7 calls)
           2  forces --- i/o, init_us_2, calbec, s_psi:
     forces       :     62.50s CPU     62.54s WALL (       8 calls)
           2  forces --- dn/dtau:
     forces       :    119.91s CPU    119.97s WALL (       9 calls)
           3  forces --- i/o, init_us_2, calbec, s_psi:
     forces       :    120.03s CPU    120.09s WALL (      10 calls)
           3  forces --- dn/dtau:
     forces       :    177.24s CPU    177.32s WALL (      11 calls)
           4  forces --- i/o, init_us_2, calbec, s_psi:
     forces       :    177.35s CPU    177.44s WALL (      12 calls)
           4  forces --- dn/dtau:
     forces       :    234.83s CPU    234.96s WALL (      13 calls)
           5  forces --- i/o, init_us_2, calbec, s_psi:
     forces       :    234.95s CPU    235.09s WALL (      14 calls)
           5  forces --- dn/dtau:
     forces       :    292.17s CPU    292.32s WALL (      15 calls)
           6  forces --- i/o, init_us_2, calbec, s_psi:
     forces       :    292.28s CPU    292.44s WALL (      16 calls)
           6  forces --- dn/dtau:
     forces       :    347.68s CPU    347.87s WALL (      17 calls)
           7  forces --- i/o, init_us_2, calbec, s_psi:
     forces       :    347.82s CPU    348.01s WALL (      18 calls)
           7  forces --- dn/dtau:
     forces       :    402.64s CPU    402.88s WALL (      19 calls)
           8  forces --- i/o, init_us_2, calbec, s_psi:
     forces       :    402.76s CPU    403.00s WALL (      20 calls)
           8  forces --- dn/dtau:
     forces       :    457.70s CPU    457.97s WALL (      21 calls)
           9  forces --- i/o, init_us_2, calbec, s_psi:
     forces       :    457.82s CPU    458.09s WALL (      22 calls)
           9  forces --- dn/dtau:
     forces       :    512.36s CPU    512.66s WALL (      23 calls)
          10  forces --- i/o, init_us_2, calbec, s_psi:
     forces       :    512.48s CPU    512.78s WALL (      24 calls)
          10  forces --- dn/dtau:
     forces       :    566.63s CPU    566.95s WALL (      25 calls)
          11  forces --- i/o, init_us_2, calbec, s_psi:
     forces       :    566.75s CPU    567.08s WALL (      26 calls)
          11  forces --- dn/dtau:
     forces       :    621.00s CPU    621.34s WALL (      27 calls)
          12  forces --- i/o, init_us_2, calbec, s_psi:
     forces       :    621.12s CPU    621.46s WALL (      28 calls)
          12  forces --- dn/dtau:
     forces       :    675.83s CPU    676.18s WALL (      29 calls)
          13  forces --- i/o, init_us_2, calbec, s_psi:
     forces       :    675.95s CPU    676.31s WALL (      30 calls)
          13  forces --- dn/dtau:
     forces       :    730.67s CPU    731.04s WALL (      31 calls)
          14  forces --- i/o, init_us_2, calbec, s_psi:
     forces       :    730.78s CPU    731.16s WALL (      32 calls)
          14  forces --- dn/dtau:
     forces       :    785.28s CPU    785.67s WALL (      33 calls)
          15  forces --- i/o, init_us_2, calbec, s_psi:
     forces       :    785.40s CPU    785.80s WALL (      34 calls)
          15  forces --- dn/dtau:
     forces       :    839.40s CPU    839.81s WALL (      35 calls)
          16  forces --- i/o, init_us_2, calbec, s_psi:
     forces       :    839.52s CPU    839.93s WALL (      36 calls)
          16  forces --- dn/dtau:
     forces       :    894.44s CPU    894.88s WALL (      37 calls)
 forces --- Hubbard contribution:
     forces       :    894.44s CPU    894.88s WALL (      38 calls)
 forces --- ionic contribution:
     forces       :    894.46s CPU    894.90s WALL (      39 calls)
 forces --- SCF contribution:
     forces       :    894.63s CPU    895.07s WALL (      40 calls)
     atom   1 type  2   force =    -0.00532666    0.00000000   -0.00267458
     atom   2 type  2   force =    -0.12349882    0.00000000   -0.02126286
     atom   3 type  2   force =    -0.00304620    0.00523351   -0.00973496
     atom   4 type  2   force =    -0.01577894    0.02119007   -0.01717214
     atom   5 type  2   force =    -0.00304620   -0.00523351   -0.00973496
     atom   6 type  2   force =    -0.01577894   -0.02119007   -0.01717214
     atom   7 type  2   force =     0.02957324    0.14713281    0.02230558
     atom   8 type  2   force =     0.00033362    0.00692054    0.00560957
     atom   9 type  2   force =     0.00884216    0.00000000    0.01916206
     atom  10 type  2   force =     0.00036775    0.00000000    0.01154835
     atom  11 type  2   force =     0.02957324   -0.14713281    0.02230558
     atom  12 type  2   force =     0.00033362   -0.00692054    0.00560957
     atom  13 type  2   force =     0.04168258    0.00735649    0.02049855
     atom  14 type  2   force =     0.01242824    0.00277954    0.01266234
     atom  15 type  2   force =     0.01242558    0.00000000    0.01735175
     atom  16 type  2   force =     0.00746541    0.00000000    0.01337445
     atom  17 type  2   force =     0.04168258   -0.00735649    0.02049855
     atom  18 type  2   force =     0.01242824   -0.00277954    0.01266234
     atom  19 type  2   force =    -0.00992319    0.00000000   -0.01243295
     atom  20 type  2   force =    -0.02693387    0.00000000   -0.02060944
     atom  21 type  2   force =    -0.00625243    0.00248048   -0.01293210
     atom  22 type  2   force =    -0.00956926    0.00564639   -0.01757097
     atom  23 type  2   force =    -0.00625243   -0.00248048   -0.01293210
     atom  24 type  2   force =    -0.00956926   -0.00564639   -0.01757097
     atom  25 type  1   force =    -0.00146620   -0.00532096    0.00259091
     atom  26 type  1   force =     0.02027356   -0.04352726    0.00515793
     atom  27 type  1   force =    -0.00330599    0.00000000    0.00194769
     atom  28 type  1   force =    -0.00099451    0.00000000   -0.00039667
     atom  29 type  1   force =    -0.00146620    0.00532096    0.00259091
     atom  30 type  1   force =     0.02027356    0.04352726    0.00515793
     atom  31 type  3   force =     0.02974924    0.00000000   -0.02065973
     atom  32 type  1   force =     0.00391691    0.00000000   -0.00380191
     atom  33 type  1   force =     0.01404851   -0.03526154    0.00755261
     atom  34 type  1   force =     0.00502960   -0.00595892   -0.00250047
     atom  35 type  1   force =     0.01404851    0.03526154    0.00755261
     atom  36 type  1   force =     0.00502960    0.00595892   -0.00250047
     atom  37 type  1   force =    -0.01017913    0.00000000   -0.00151583
     atom  38 type  1   force =    -0.00472381    0.00000000   -0.00276242
     atom  39 type  1   force =    -0.00853015   -0.00837033   -0.00059520
     atom  40 type  1   force =    -0.00503685   -0.00282381   -0.00222015
     atom  41 type  1   force =    -0.00853015    0.00837033   -0.00059520
     atom  42 type  1   force =    -0.00503685    0.00282381   -0.00222015
     atom  43 type  1   force =     0.00315724   -0.00255022    0.00271340
     atom  44 type  1   force =     0.00227717   -0.00656783    0.00316208
     atom  45 type  1   force =     0.00393568    0.00000000    0.00213299
     atom  46 type  1   force =     0.00404774    0.00000000    0.00156212
     atom  47 type  1   force =     0.00315724    0.00255022    0.00271340
     atom  48 type  1   force =     0.00227717    0.00656783    0.00316208
     atom  49 type  1   force =     0.00054503    0.00000000   -0.00246146
     atom  50 type  1   force =     0.00196799    0.00000000    0.00755524
     atom  51 type  1   force =    -0.00000257   -0.00039824   -0.00095522
     atom  52 type  1   force =     0.00059100   -0.00040294    0.00509449
     atom  53 type  1   force =    -0.00000257    0.00039824   -0.00095522
     atom  54 type  1   force =     0.00059100    0.00040294    0.00509449
     atom  55 type  1   force =    -0.00242106   -0.00056060   -0.00718351
     atom  56 type  1   force =    -0.00104754   -0.00049955    0.00243548
     atom  57 type  1   force =    -0.00073677    0.00000000   -0.00483392
     atom  58 type  1   force =    -0.00031994    0.00000000    0.00084533
     atom  59 type  1   force =    -0.00242106    0.00056060   -0.00718351
     atom  60 type  1   force =    -0.00104754    0.00049955    0.00243548
     atom  61 type  1   force =    -0.00185797   -0.00882578   -0.01935404
     atom  62 type  1   force =    -0.00128695   -0.00453738    0.01471405
     atom  63 type  1   force =    -0.00016389    0.00000000   -0.00684989
     atom  64 type  1   force =    -0.00066552    0.00000000    0.00337868
     atom  65 type  1   force =    -0.00185797    0.00882578   -0.01935404
     atom  66 type  1   force =    -0.00128695    0.00453738    0.01471405
     atom  67 type  1   force =    -0.01060052   -0.00079607   -0.00983803
     atom  68 type  1   force =    -0.05438511   -0.01187877   -0.00796753
     atom  69 type  1   force =    -0.00570008    0.00000000   -0.00882423
     atom  70 type  1   force =    -0.01484266    0.00000000   -0.00741310
     atom  71 type  1   force =    -0.01060052    0.00079607   -0.00983803
     atom  72 type  1   force =    -0.05438511    0.01187877   -0.00796753
     atom  73 type  1   force =     0.04998744    0.00000000   -0.00121966
     atom  74 type  1   force =     0.01050853    0.00000000    0.00894414
     atom  75 type  1   force =     0.01545891   -0.00213803    0.00664588
     atom  76 type  1   force =     0.00605348   -0.00057791    0.00842999
     atom  77 type  1   force =     0.01545891    0.00213803    0.00664588
     atom  78 type  1   force =     0.00605348    0.00057791    0.00842999
     atom  79 type  1   force =     0.00480271    0.00000000   -0.01457843
     atom  80 type  1   force =     0.00473647    0.00000000    0.01475506
     atom  81 type  1   force =     0.00137435   -0.00107625   -0.00400632
     atom  82 type  1   force =     0.00100837   -0.00125518    0.00732738
     atom  83 type  1   force =     0.00137435    0.00107625   -0.00400632
     atom  84 type  1   force =     0.00100837    0.00125518    0.00732738

     Total force =     0.310015     Total SCF correction =     0.000443


     entering subroutine stress ...


     negative rho (up, down):  0.118E-01 0.118E-01
          total   stress  (Ry/bohr**3)                   (kbar)     P=   21.68
   0.00022183   0.00000000   0.00004491         32.63      0.00      6.61
   0.00000000   0.00022531   0.00000000          0.00     33.14      0.00
   0.00004491   0.00000000  -0.00000509          6.61      0.00     -0.75


     Writing output data file v2o5.O31-FCH.save
 
     init_run     :     25.62s CPU     26.71s WALL (       1 calls)
     electrons    :   2241.05s CPU   2266.07s WALL (       1 calls)
     forces       :    894.63s CPU    895.07s WALL (      41 calls)
     stress       :   1096.80s CPU   1098.32s WALL (       1 calls)

     Called by init_run:
     wfcinit      :     22.91s CPU     23.40s WALL (       1 calls)
     potinit      :      0.24s CPU      0.25s WALL (       1 calls)

     Called by electrons:
     c_bands      :   1892.89s CPU   1912.65s WALL (      33 calls)
     sum_band     :    305.12s CPU    307.72s WALL (      33 calls)
     v_of_rho     :      2.33s CPU      2.35s WALL (      34 calls)
     newd         :     34.15s CPU     34.16s WALL (      34 calls)
     mix_rho      :      2.89s CPU      2.91s WALL (      33 calls)

     Called by c_bands:
     init_us_2    :      2.37s CPU      2.90s WALL (    1280 calls)
     cegterg      :   1881.71s CPU   1898.31s WALL (     528 calls)

     Called by *egterg:
     h_psi        :   1032.12s CPU   1035.88s WALL (    2314 calls)
     s_psi        :     51.25s CPU     51.29s WALL (    2490 calls)
     g_psi        :      0.66s CPU      0.66s WALL (    1770 calls)
     cdiaghg      :    684.80s CPU    697.03s WALL (    2298 calls)

     Called by h_psi:
     add_vuspsi   :     43.91s CPU     44.06s WALL (    2314 calls)

     General routines
     calbec       :    145.43s CPU    145.93s WALL (    5668 calls)
     fft          :      3.62s CPU      3.65s WALL (    1088 calls)
     ffts         :      2.09s CPU      2.10s WALL (    1920 calls)
     fftw         :   1065.70s CPU   1069.72s WALL ( 1131046 calls)
     interpolate  :      0.56s CPU      0.57s WALL (     134 calls)
     davcio       :      0.59s CPU      6.07s WALL (    3760 calls)
 
     Parallel routines
     fft_scatter  :    898.40s CPU    901.75s WALL ( 1134054 calls)
 
     PWSCF        :     1h11m CPU        1h11m WALL

 
   This run was terminated on:   0:41:57  11Sep2018            

=------------------------------------------------------------------------------=
   JOB DONE.
=------------------------------------------------------------------------------=
