
     Program PWSCF v.4.3        starts on  4Sep2018 at 18:29:29 

     This program is part of the open-source Quantum ESPRESSO suite
     for quantum simulation of materials; please cite
         "P. Giannozzi et al., J. Phys.:Condens. Matter 21 395502 (2009);
          URL http://www.quantum-espresso.org", 
     in publications or presentations arising from this work. More details at
     http://www.quantum-espresso.org/wiki/index.php/Citing_Quantum-ESPRESSO

     Parallel version (MPI), running on    32 processors
     R & G space division:  proc/pool =   32

     Current dimensions of program PWSCF are:
     Max number of different atomic species (ntypx) = **
     Max number of k-points (npk) =  40000
     Max angular momentum in pseudopotentials (lmaxx) =  3
     Waiting for input...

     Atomic positions and unit cell read from directory:
     ./acetic.O1-XCH.save/
 

     Subspace diagonalization in iterative solution of the eigenvalue problem:
     parallel, distributed-memory algorithm (size of sub-group:  4*  4 procs)

 
   Stick Mesh
   ----------
   nst =  9681,  nstw =  1209, nsts =  4835
               n.st   n.stw   n.sts    n.g    n.gw   n.gs
   min         302      37     151   20230     891    7145
   max         303      38     152   20235     896    7168
       9681    1209    4835  647433   28595  228945
 


     bravais-lattice index     =           14
     lattice parameter (a_0)   =      24.2289  a.u.
     unit-cell volume          =   13554.2397 (a.u.)^3
     number of atoms/cell      =            8
     number of atomic types    =            4
     number of electrons       =        25.00
     number of Kohn-Sham states=          480
     kinetic-energy cutoff     =      25.0000  Ry
     charge density cutoff     =     200.0000  Ry
     Exchange-correlation      = SLA  PW   PBE  PBE (1434)
     EXX-fraction              =        0.00

     celldm(1)=  24.228935  celldm(2)=   1.035573  celldm(3)=   0.920219
     celldm(4)=   0.000000  celldm(5)=   0.000000  celldm(6)=   0.000000

     crystal axes: (cart. coord. in units of a_0)
               a(1) = (   1.000000   0.000000   0.000000 )  
               a(2) = (   0.000000   1.035573   0.000000 )  
               a(3) = (   0.000000   0.000000   0.920219 )  

     reciprocal axes: (cart. coord. in units 2 pi/a_0)
               b(1) = (  1.000000  0.000000  0.000000 )  
               b(2) = (  0.000000  0.965649  0.000000 )  
               b(3) = (  0.000000  0.000000  1.086697 )  


     PseudoPot. # 1 for C  read from file C.pbe-van-yufengl.UPF
     MD5 check sum: 53b91e9bc0fbd261922308fb0e321ce8
     Pseudo is Ultrasoft, Zval =  4.0
     Generated by new atomic code, or converted to UPF format
     Using radial grid of  745 points,  4 beta functions with: 
                l(1) =   0
                l(2) =   0
                l(3) =   1
                l(4) =   1
     Q(r) pseudized with  8 coefficients,  rinner =    0.800   0.800   0.800


     PseudoPot. # 2 for H  read from file H.pbe-van_bm.UPF
     MD5 check sum: b5ee9d7bfd3a09ee7748110bda690ff7
     Pseudo is Ultrasoft, Zval =  1.0
     Generated by new atomic code, or converted to UPF format
     Using radial grid of  615 points,  1 beta functions with: 
                l(1) =   0
     Q(r) pseudized with  8 coefficients,  rinner =    0.800

     PseudoPot. # 3 for O  read from file O.pbe-van_bm.UPF
     MD5 check sum: ca2828d9fb1f294809e918903b7648d1
     Pseudo is Ultrasoft, Zval =  6.0
     Generated by new atomic code, or converted to UPF format
     Using radial grid of  737 points,  4 beta functions with: 
                l(1) =   0
                l(2) =   0
                l(3) =   1
                l(4) =   1
     Q(r) pseudized with  8 coefficients,  rinner =    0.800   0.800   0.800


     PseudoPot. # 4 for ox read from file O.pbe-van-dgp-1s1.UPF
     MD5 check sum: 2083901d62884ac3a15d661bda1575b3
     Pseudo is Ultrasoft, Zval =  7.0
     Generated by new atomic code, or converted to UPF format
     Using radial grid of  737 points,  4 beta functions with: 
                l(1) =   0
                l(2) =   0
                l(3) =   1
                l(4) =   1
     Q(r) pseudized with  8 coefficients,  rinner =    0.800   0.800   0.800


     atomic species   valence    mass     pseudopotential
        C              4.00    12.00000     C ( 1.00)
        H              1.00     1.00790     H ( 1.00)
        O              6.00    15.99900     O ( 1.00)
        OX             7.00    15.99900     ox( 1.00)

     No symmetry found

   Cartesian axes

     site n.     atom                  positions (a_0 units)
         1           OX  tau(  1) = (   0.0236636  -0.1005350  -0.0000156  )
         2           O   tau(  2) = (   0.0764425   0.0692280  -0.0000156  )
         3           C   tau(  3) = (  -0.1071880   0.0274307  -0.0000156  )
         4           C   tau(  4) = (   0.0070741   0.0038685   0.0000390  )
         5           H   tau(  5) = (  -0.1434633  -0.0044145  -0.0702653  )
         6           H   tau(  6) = (  -0.1436115  -0.0047655   0.0700080  )
         7           H   tau(  7) = (  -0.1184426   0.1120080   0.0002028  )
         8           H   tau(  8) = (  -0.0395979  -0.1436193  -0.0000156  )

     number of k points=     1  Fermi-Dirac smearing, width (Ry)=  0.0019
                       cart. coord. in units 2pi/a_0
        k(    1) = (   0.0000000   0.0000000   0.0000000), wk =   2.0000000

     G cutoff = 2973.9858  ( 647433 G-vectors)     FFT grid: (120,120,108)
     G cutoff = 1486.9929  ( 228945 G-vectors)  smooth grid: ( 80, 80, 72)

     Largest allocated arrays     est. size (Mb)     dimensions
        Kohn-Sham Wavefunctions         6.56 Mb     (    896, 480)
        NL pseudopotentials             0.49 Mb     (    896,  36)
        Each V/rho on FFT grid          0.88 Mb     (  57600)
        Each G-vector array             0.15 Mb     (  20232)
        G-vector shells                 0.08 Mb     (   9963)
     Largest temporary arrays     est. size (Mb)     dimensions
        Auxiliary wavefunctions        26.25 Mb     (    896,1920)
        Each subspace H/S matrix       56.25 Mb     (   1920,1920)
        Each <psi_i|beta_j> matrix      0.26 Mb     (     36, 480)

     The potential is recalculated from file :
     ./acetic.O1-XCH.save/charge-density.dat


     negative rho (up, down):  0.246E-01 0.000E+00
     Starting wfc are   22 atomic +  458 random wfc

     total cpu time spent up to now is      1.40 secs

     per-process dynamical memory:    67.8 Mb

     Band Structure Calculation
     Davidson diagonalization with overlap

     ethr =  4.00E-11,  avg # of iterations = 20.0

     total cpu time spent up to now is     70.28 secs

     End of band structure calculation

          k = 0.0000 0.0000 0.0000     band energies (ev):

   -32.7595 -26.7702 -20.2323 -19.1535 -15.8901 -15.1817 -12.6159 -11.2163
   -10.9074 -10.5497  -9.2751  -7.4473  -2.2308  -2.2078  -0.6429  -0.0868
     0.0154   0.0492   0.1559   0.3044   0.4902   0.8471   0.8614   0.9315
     1.0254   1.0490   1.0589   1.1676   1.2185   1.2782   1.3300   1.3399
     1.4820   1.7856   1.9178   2.0050   2.0688   2.0973   2.1044   2.1379
     2.1783   2.2296   2.5568   2.5976   2.7604   2.9367   3.0063   3.2037
     3.3022   3.3405   3.4259   3.5024   3.5376   3.5834   3.6232   3.7144
     3.7915   3.8035   3.8367   3.8520   3.9064   3.9230   3.9493   4.0508
     4.0544   4.2087   4.3156   4.3768   4.4392   4.4797   4.5089   4.5236
     4.5524   4.5702   4.5799   4.6037   4.6106   4.6493   4.7818   4.7898
     4.8132   4.8426   4.8494   4.8674   4.8937   4.9040   5.0007   5.0524
     5.1824   5.2041   5.3266   5.3346   5.3443   5.3656   5.4425   5.6507
     5.7457   5.7843   6.0345   6.1860   6.2442   6.3214   6.4032   6.5653
     6.8205   6.8755   6.9913   7.0327   7.0587   7.0597   7.1406   7.1462
     7.1945   7.2150   7.2379   7.2674   7.3295   7.3672   7.4191   7.5095
     7.5263   7.5710   7.6412   7.6869   7.7016   7.7538   7.7827   7.8011
     7.8030   7.8397   7.8454   7.9040   7.9471   7.9873   8.0005   8.0141
     8.0272   8.0584   8.0650   8.0689   8.1242   8.1257   8.1537   8.1873
     8.2271   8.2592   8.3849   8.3876   8.4347   8.4409   8.4987   8.5471
     8.6093   8.6573   8.6780   8.7245   8.8128   8.8657   8.8915   8.9311
     8.9335   8.9971   9.1632   9.1944   9.2649   9.3012   9.3098   9.3383
     9.3699   9.4233   9.4355   9.4569   9.5046   9.5818   9.6199   9.7308
     9.9191   9.9536   9.9773  10.0058  10.0197  10.0794  10.2004  10.2955
    10.3380  10.3775  10.4935  10.5090  10.5388  10.6135  10.6419  10.6572
    10.6715  10.6958  10.7248  10.7285  10.7425  10.7469  10.7578  10.7820
    10.8137  10.8379  10.8851  11.0195  11.0599  11.1839  11.2804  11.2972
    11.3443  11.3918  11.4629  11.5040  11.5089  11.5306  11.5850  11.6041
    11.6506  11.6525  11.7813  11.8071  11.8312  11.8695  11.8732  11.9155
    11.9181  11.9323  11.9368  11.9784  12.0364  12.0804  12.0825  12.0913
    12.1624  12.1693  12.1948  12.2092  12.2441  12.2665  12.2671  12.3547
    12.3729  12.4953  12.5188  12.5676  12.5914  12.6250  12.6606  12.6894
    12.7029  12.7323  12.7482  12.8481  12.9004  12.9238  13.0261  13.1138
    13.1390  13.1729  13.1913  13.2913  13.3007  13.3657  13.3864  13.4272
    13.4600  13.4616  13.4775  13.4924  13.4972  13.5133  13.5517  13.6281
    13.6890  13.7352  13.8202  13.8858  13.9660  13.9742  14.0138  14.0564
    14.0685  14.1669  14.2514  14.2551  14.3401  14.4383  14.4824  14.5633
    14.5822  14.6303  14.6773  14.7394  14.7881  14.8001  14.8274  14.8501
    14.8545  14.8557  14.9091  14.9221  14.9329  14.9707  14.9862  14.9929
    15.0133  15.0184  15.0673  15.0723  15.0758  15.0945  15.1396  15.1685
    15.2196  15.2896  15.3818  15.3892  15.4655  15.5159  15.6000  15.6499
    15.6669  15.7445  15.7600  15.7785  15.7885  15.7904  15.8210  15.8590
    15.8631  15.9125  15.9276  15.9854  16.0215  16.0393  16.0852  16.0861
    16.1071  16.1130  16.1354  16.1684  16.2187  16.2194  16.3046  16.3661
    16.4188  16.4317  16.5365  16.6170  16.6500  16.6586  16.7310  16.7783
    16.8256  16.8561  16.8942  16.9211  16.9529  17.0024  17.0276  17.0844
    17.1407  17.1671  17.1861  17.2602  17.2748  17.2850  17.3219  17.3478
    17.3590  17.4112  17.4412  17.4711  17.4820  17.4845  17.5008  17.5230
    17.5394  17.5417  17.5483  17.5606  17.5712  17.5864  17.6121  17.6870
    17.7060  17.7911  17.8030  17.8575  17.8722  17.9208  17.9550  18.0236
    18.0275  18.0279  18.0315  18.0496  18.0652  18.0934  18.0947  18.1051
    18.1096  18.1313  18.1352  18.1618  18.1658  18.1877  18.1975  18.2080
    18.2130  18.2133  18.2294  18.2361  18.2731  18.3223  18.3325  18.3700
    18.3923  18.4740  18.5832  18.5880  18.7149  18.7465  18.7718  18.7880
    18.8795  18.9165  18.9791  18.9858  18.9941  19.0163  19.0370  19.0479
    19.0790  19.2285  19.2877  19.3087  19.4117  19.4531  19.4694  19.6338
    19.6610  19.7533  19.8022  19.8369  19.8605  19.9135  19.9452  19.9828
    20.0049  20.0297  20.1087  20.1640  20.2024  20.2536  20.2733  20.2827
    20.3727  20.3911  20.4261  20.4326  20.5300  20.5380  20.5499  20.5544
    20.5723  20.5950  20.6146  20.6230  20.6564  20.6621  20.6706  20.6934
    20.6993  20.7841  20.7887  20.8119  20.8506  20.8899  20.9146  20.9182

     the Fermi energy is    -2.2490 ev

     Writing output data file acetic.O1-XCH.save
 
     init_run     :      1.05s CPU      1.22s WALL (       1 calls)
     electrons    :     68.53s CPU     68.98s WALL (       1 calls)

     Called by init_run:
     wfcinit      :      0.00s CPU      0.00s WALL (       1 calls)
     potinit      :      0.16s CPU      0.18s WALL (       1 calls)

     Called by electrons:
     c_bands      :     68.48s CPU     68.88s WALL (       1 calls)
     v_of_rho     :      0.08s CPU      0.09s WALL (       1 calls)
     newd         :      0.09s CPU      0.09s WALL (       1 calls)

     Called by c_bands:
     init_us_2    :      0.00s CPU      0.00s WALL (       1 calls)
     cegterg      :     67.41s CPU     67.77s WALL (       1 calls)

     Called by *egterg:
     h_psi        :     10.10s CPU     10.17s WALL (      22 calls)
     s_psi        :      0.06s CPU      0.06s WALL (      22 calls)
     g_psi        :      0.04s CPU      0.04s WALL (      20 calls)
     cdiaghg      :     49.06s CPU     49.32s WALL (      21 calls)

     Called by h_psi:
     add_vuspsi   :      0.06s CPU      0.06s WALL (      22 calls)

     General routines
     calbec       :      0.08s CPU      0.08s WALL (      22 calls)
     fft          :      0.36s CPU      0.49s WALL (      12 calls)
     ffts         :      0.00s CPU      0.00s WALL (       1 calls)
     fftw         :      9.45s CPU      9.51s WALL (   13350 calls)
     interpolate  :      0.02s CPU      0.02s WALL (       1 calls)
     davcio       :      0.00s CPU      0.06s WALL (       3 calls)
 
     Parallel routines
     fft_scatter  :      3.60s CPU      3.75s WALL (   13363 calls)
 
     PWSCF        :  1m11.38s CPU     1m12.49s WALL

 
   This run was terminated on:  18:30:42   4Sep2018            

=------------------------------------------------------------------------------=
   JOB DONE.
=------------------------------------------------------------------------------=
