
     Program PWSCF v.4.3        starts on  4Sep2018 at 18:28:51 

     This program is part of the open-source Quantum ESPRESSO suite
     for quantum simulation of materials; please cite
         "P. Giannozzi et al., J. Phys.:Condens. Matter 21 395502 (2009);
          URL http://www.quantum-espresso.org", 
     in publications or presentations arising from this work. More details at
     http://www.quantum-espresso.org/wiki/index.php/Citing_Quantum-ESPRESSO

     Parallel version (MPI), running on    32 processors
     R & G space division:  proc/pool =   32

     Current dimensions of program PWSCF are:
     Max number of different atomic species (ntypx) = **
     Max number of k-points (npk) =  40000
     Max angular momentum in pseudopotentials (lmaxx) =  3
     Waiting for input...

     Subspace diagonalization in iterative solution of the eigenvalue problem:
     parallel, distributed-memory algorithm (size of sub-group:  4*  4 procs)

 
   Stick Mesh
   ----------
   nst =  9681,  nstw =  1209, nsts =  4835
               n.st   n.stw   n.sts    n.g    n.gw   n.gs
   min         302      37     151   20230     891    7145
   max         303      38     152   20235     896    7168
       9681    1209    4835  647433   28595  228945
 


     bravais-lattice index     =           14
     lattice parameter (a_0)   =      24.2289  a.u.
     unit-cell volume          =   13554.2397 (a.u.)^3
     number of atoms/cell      =            8
     number of atomic types    =            4
     number of electrons       =        25.00
     number of Kohn-Sham states=           16
     kinetic-energy cutoff     =      25.0000  Ry
     charge density cutoff     =     200.0000  Ry
     convergence threshold     =      1.0E-08
     mixing beta               =       0.3000
     number of iterations used =            8  local-TF  mixing
     Exchange-correlation      = SLA  PW   PBE  PBE (1434)
     EXX-fraction              =        0.00

     celldm(1)=  24.228935  celldm(2)=   1.035573  celldm(3)=   0.920219
     celldm(4)=   0.000000  celldm(5)=   0.000000  celldm(6)=   0.000000

     crystal axes: (cart. coord. in units of a_0)
               a(1) = (   1.000000   0.000000   0.000000 )  
               a(2) = (   0.000000   1.035573   0.000000 )  
               a(3) = (   0.000000   0.000000   0.920219 )  

     reciprocal axes: (cart. coord. in units 2 pi/a_0)
               b(1) = (  1.000000  0.000000  0.000000 )  
               b(2) = (  0.000000  0.965649  0.000000 )  
               b(3) = (  0.000000  0.000000  1.086697 )  


     PseudoPot. # 1 for C  read from file C.pbe-van-yufengl.UPF
     MD5 check sum: 53b91e9bc0fbd261922308fb0e321ce8
     Pseudo is Ultrasoft, Zval =  4.0
     Generated by new atomic code, or converted to UPF format
     Using radial grid of  745 points,  4 beta functions with: 
                l(1) =   0
                l(2) =   0
                l(3) =   1
                l(4) =   1
     Q(r) pseudized with  8 coefficients,  rinner =    0.800   0.800   0.800


     PseudoPot. # 2 for H  read from file H.pbe-van_bm.UPF
     MD5 check sum: b5ee9d7bfd3a09ee7748110bda690ff7
     Pseudo is Ultrasoft, Zval =  1.0
     Generated by new atomic code, or converted to UPF format
     Using radial grid of  615 points,  1 beta functions with: 
                l(1) =   0
     Q(r) pseudized with  8 coefficients,  rinner =    0.800

     PseudoPot. # 3 for O  read from file O.pbe-van_bm.UPF
     MD5 check sum: ca2828d9fb1f294809e918903b7648d1
     Pseudo is Ultrasoft, Zval =  6.0
     Generated by new atomic code, or converted to UPF format
     Using radial grid of  737 points,  4 beta functions with: 
                l(1) =   0
                l(2) =   0
                l(3) =   1
                l(4) =   1
     Q(r) pseudized with  8 coefficients,  rinner =    0.800   0.800   0.800


     PseudoPot. # 4 for ox read from file O.pbe-van-dgp-1s1.UPF
     MD5 check sum: 2083901d62884ac3a15d661bda1575b3
     Pseudo is Ultrasoft, Zval =  7.0
     Generated by new atomic code, or converted to UPF format
     Using radial grid of  737 points,  4 beta functions with: 
                l(1) =   0
                l(2) =   0
                l(3) =   1
                l(4) =   1
     Q(r) pseudized with  8 coefficients,  rinner =    0.800   0.800   0.800


     atomic species   valence    mass     pseudopotential
        C              4.00    12.00000     C ( 1.00)
        H              1.00     1.00790     H ( 1.00)
        O              6.00    15.99900     O ( 1.00)
        OX             7.00    15.99900     ox( 1.00)

     No symmetry found

   Cartesian axes

     site n.     atom                  positions (a_0 units)
         1           OX  tau(  1) = (   0.0236636  -0.1005350  -0.0000156  )
         2           O   tau(  2) = (   0.0764425   0.0692280  -0.0000156  )
         3           C   tau(  3) = (  -0.1071880   0.0274307  -0.0000156  )
         4           C   tau(  4) = (   0.0070741   0.0038685   0.0000390  )
         5           H   tau(  5) = (  -0.1434633  -0.0044145  -0.0702653  )
         6           H   tau(  6) = (  -0.1436115  -0.0047655   0.0700080  )
         7           H   tau(  7) = (  -0.1184426   0.1120080   0.0002028  )
         8           H   tau(  8) = (  -0.0395979  -0.1436193  -0.0000156  )

     number of k points=     1  Fermi-Dirac smearing, width (Ry)=  0.0019
                       cart. coord. in units 2pi/a_0
        k(    1) = (   0.0000000   0.0000000   0.0000000), wk =   2.0000000

     G cutoff = 2973.9858  ( 647433 G-vectors)     FFT grid: (120,120,108)
     G cutoff = 1486.9929  ( 228945 G-vectors)  smooth grid: ( 80, 80, 72)

     Largest allocated arrays     est. size (Mb)     dimensions
        Kohn-Sham Wavefunctions         0.22 Mb     (    896,  16)
        NL pseudopotentials             0.49 Mb     (    896,  36)
        Each V/rho on FFT grid          0.88 Mb     (  57600)
        Each G-vector array             0.15 Mb     (  20232)
        G-vector shells                 0.08 Mb     (   9963)
     Largest temporary arrays     est. size (Mb)     dimensions
        Auxiliary wavefunctions         0.88 Mb     (    896,  64)
        Each subspace H/S matrix        0.06 Mb     (     64,  64)
        Each <psi_i|beta_j> matrix      0.01 Mb     (     36,  16)
        Arrays for rho mixing           7.03 Mb     (  57600,   8)

     Initial potential from superposition of free atoms
     Check: negative starting charge=   -0.012204

     starting charge   23.99988, renormalised to   25.00000

     negative rho (up, down):  0.127E-01 0.000E+00
     Starting wfc are   22 atomic wfcs

     total cpu time spent up to now is      2.00 secs

     per-process dynamical memory:    66.7 Mb

     Self-consistent Calculation

     iteration #  1     ecut=    25.00 Ry     beta=0.30
     Davidson diagonalization with overlap
     ethr =  1.00E-02,  avg # of iterations =  4.0

     negative rho (up, down):  0.625E-02 0.000E+00

     total cpu time spent up to now is      3.46 secs

     total energy              =    -106.86404955 Ry
     Harris-Foulkes estimate   =    -107.00327896 Ry
     estimated scf accuracy    <       0.93830854 Ry

     iteration #  2     ecut=    25.00 Ry     beta=0.30
     Davidson diagonalization with overlap
     ethr =  3.75E-03,  avg # of iterations =  1.0

     negative rho (up, down):  0.342E-01 0.000E+00

     total cpu time spent up to now is      4.94 secs

     total energy              =    -106.65033830 Ry
     Harris-Foulkes estimate   =    -106.87811078 Ry
     estimated scf accuracy    <       0.54569175 Ry

     iteration #  3     ecut=    25.00 Ry     beta=0.30
     Davidson diagonalization with overlap
     ethr =  2.18E-03,  avg # of iterations =  2.0

     negative rho (up, down):  0.264E-01 0.000E+00

     total cpu time spent up to now is      6.23 secs

     total energy              =    -106.76978549 Ry
     Harris-Foulkes estimate   =    -106.79103493 Ry
     estimated scf accuracy    <       0.35925007 Ry

     iteration #  4     ecut=    25.00 Ry     beta=0.30
     Davidson diagonalization with overlap
     ethr =  1.44E-03,  avg # of iterations =  1.0

     negative rho (up, down):  0.113E-01 0.000E+00

     total cpu time spent up to now is      7.24 secs

     total energy              =    -106.66963827 Ry
     Harris-Foulkes estimate   =    -106.77175071 Ry
     estimated scf accuracy    <       0.30436035 Ry

     iteration #  5     ecut=    25.00 Ry     beta=0.30
     Davidson diagonalization with overlap
     ethr =  1.22E-03,  avg # of iterations =  4.0

     negative rho (up, down):  0.126E-01 0.000E+00

     total cpu time spent up to now is      8.28 secs

     total energy              =    -106.77277404 Ry
     Harris-Foulkes estimate   =    -106.77472866 Ry
     estimated scf accuracy    <       0.18331585 Ry

     iteration #  6     ecut=    25.00 Ry     beta=0.30
     Davidson diagonalization with overlap
     ethr =  7.33E-04,  avg # of iterations =  1.0

     negative rho (up, down):  0.166E-01 0.000E+00

     total cpu time spent up to now is      9.77 secs

     total energy              =    -106.73231989 Ry
     Harris-Foulkes estimate   =    -106.77411726 Ry
     estimated scf accuracy    <       0.18718245 Ry

     iteration #  7     ecut=    25.00 Ry     beta=0.30
     Davidson diagonalization with overlap
     ethr =  7.33E-04,  avg # of iterations =  2.0

     negative rho (up, down):  0.187E-01 0.000E+00

     total cpu time spent up to now is     10.93 secs

     total energy              =    -106.72389678 Ry
     Harris-Foulkes estimate   =    -106.73644678 Ry
     estimated scf accuracy    <       0.08923096 Ry

     iteration #  8     ecut=    25.00 Ry     beta=0.30
     Davidson diagonalization with overlap
     ethr =  3.57E-04,  avg # of iterations =  1.0

     negative rho (up, down):  0.197E-01 0.000E+00

     total cpu time spent up to now is     11.84 secs

     total energy              =    -106.71941432 Ry
     Harris-Foulkes estimate   =    -106.72499314 Ry
     estimated scf accuracy    <       0.04413626 Ry

     iteration #  9     ecut=    25.00 Ry     beta=0.30
     Davidson diagonalization with overlap
     ethr =  1.77E-04,  avg # of iterations =  4.0

     negative rho (up, down):  0.242E-01 0.000E+00

     total cpu time spent up to now is     12.84 secs

     total energy              =    -106.74664254 Ry
     Harris-Foulkes estimate   =    -106.72996053 Ry
     estimated scf accuracy    <       0.17200482 Ry

     iteration # 10     ecut=    25.00 Ry     beta=0.30
     Davidson diagonalization with overlap
     ethr =  1.77E-04,  avg # of iterations =  1.0

     negative rho (up, down):  0.216E-01 0.000E+00

     total cpu time spent up to now is     14.19 secs

     total energy              =    -106.73825793 Ry
     Harris-Foulkes estimate   =    -106.74767659 Ry
     estimated scf accuracy    <       0.21896939 Ry

     iteration # 11     ecut=    25.00 Ry     beta=0.30
     Davidson diagonalization with overlap
     ethr =  1.77E-04,  avg # of iterations =  1.0

     negative rho (up, down):  0.178E-01 0.000E+00

     total cpu time spent up to now is     15.20 secs

     total energy              =    -106.72361991 Ry
     Harris-Foulkes estimate   =    -106.73845864 Ry
     estimated scf accuracy    <       0.20052860 Ry

     iteration # 12     ecut=    25.00 Ry     beta=0.30
     Davidson diagonalization with overlap
     ethr =  1.77E-04,  avg # of iterations =  1.0

     negative rho (up, down):  0.189E-01 0.000E+00

     total cpu time spent up to now is     16.56 secs

     total energy              =    -106.72525086 Ry
     Harris-Foulkes estimate   =    -106.72478938 Ry
     estimated scf accuracy    <       0.05234112 Ry

     iteration # 13     ecut=    25.00 Ry     beta=0.30
     Davidson diagonalization with overlap
     ethr =  1.77E-04,  avg # of iterations =  1.0

     negative rho (up, down):  0.167E-01 0.000E+00

     total cpu time spent up to now is     17.88 secs

     total energy              =    -106.71617653 Ry
     Harris-Foulkes estimate   =    -106.72533348 Ry
     estimated scf accuracy    <       0.08119910 Ry

     iteration # 14     ecut=    25.00 Ry     beta=0.30
     Davidson diagonalization with overlap
     ethr =  1.77E-04,  avg # of iterations =  1.0

     negative rho (up, down):  0.177E-01 0.000E+00

     total cpu time spent up to now is     19.07 secs

     total energy              =    -106.72797521 Ry
     Harris-Foulkes estimate   =    -106.72875815 Ry
     estimated scf accuracy    <       0.05663691 Ry

     iteration # 15     ecut=    25.00 Ry     beta=0.30
     Davidson diagonalization with overlap
     ethr =  1.77E-04,  avg # of iterations =  1.0

     negative rho (up, down):  0.217E-01 0.000E+00

     total cpu time spent up to now is     20.40 secs

     total energy              =    -106.72532332 Ry
     Harris-Foulkes estimate   =    -106.72801794 Ry
     estimated scf accuracy    <       0.05398068 Ry

     iteration # 16     ecut=    25.00 Ry     beta=0.30
     Davidson diagonalization with overlap
     ethr =  1.77E-04,  avg # of iterations =  1.0

     negative rho (up, down):  0.218E-01 0.000E+00

     total cpu time spent up to now is     21.97 secs

     total energy              =    -106.72527714 Ry
     Harris-Foulkes estimate   =    -106.72545166 Ry
     estimated scf accuracy    <       0.03700679 Ry

     iteration # 17     ecut=    25.00 Ry     beta=0.30
     Davidson diagonalization with overlap
     ethr =  1.48E-04,  avg # of iterations =  1.0

     negative rho (up, down):  0.244E-01 0.000E+00

     total cpu time spent up to now is     22.98 secs

     total energy              =    -106.72420145 Ry
     Harris-Foulkes estimate   =    -106.72528820 Ry
     estimated scf accuracy    <       0.03380627 Ry

     iteration # 18     ecut=    25.00 Ry     beta=0.30
     Davidson diagonalization with overlap
     ethr =  1.35E-04,  avg # of iterations =  1.0

     negative rho (up, down):  0.246E-01 0.000E+00

     total cpu time spent up to now is     24.05 secs

     total energy              =    -106.72423404 Ry
     Harris-Foulkes estimate   =    -106.72447474 Ry
     estimated scf accuracy    <       0.00517175 Ry

     iteration # 19     ecut=    25.00 Ry     beta=0.30
     Davidson diagonalization with overlap
     ethr =  2.07E-05,  avg # of iterations = 19.0

     negative rho (up, down):  0.241E-01 0.000E+00

     total cpu time spent up to now is     25.26 secs

     total energy              =    -106.72432852 Ry
     Harris-Foulkes estimate   =    -106.72441776 Ry
     estimated scf accuracy    <       0.00159474 Ry

     iteration # 20     ecut=    25.00 Ry     beta=0.30
     Davidson diagonalization with overlap
     ethr =  6.38E-06,  avg # of iterations =  1.0

     negative rho (up, down):  0.247E-01 0.000E+00

     total cpu time spent up to now is     26.30 secs

     total energy              =    -106.72439241 Ry
     Harris-Foulkes estimate   =    -106.72442939 Ry
     estimated scf accuracy    <       0.00174626 Ry

     iteration # 21     ecut=    25.00 Ry     beta=0.30
     Davidson diagonalization with overlap
     ethr =  6.38E-06,  avg # of iterations =  1.0

     negative rho (up, down):  0.245E-01 0.000E+00

     total cpu time spent up to now is     27.53 secs

     total energy              =    -106.72439185 Ry
     Harris-Foulkes estimate   =    -106.72440509 Ry
     estimated scf accuracy    <       0.00017614 Ry

     iteration # 22     ecut=    25.00 Ry     beta=0.30
     Davidson diagonalization with overlap
     ethr =  7.05E-07,  avg # of iterations =  1.0

     negative rho (up, down):  0.245E-01 0.000E+00

     total cpu time spent up to now is     28.64 secs

     total energy              =    -106.72441174 Ry
     Harris-Foulkes estimate   =    -106.72441344 Ry
     estimated scf accuracy    <       0.00065560 Ry

     iteration # 23     ecut=    25.00 Ry     beta=0.30
     Davidson diagonalization with overlap
     ethr =  7.05E-07,  avg # of iterations =  1.0

     negative rho (up, down):  0.246E-01 0.000E+00

     total cpu time spent up to now is     30.04 secs

     total energy              =    -106.72439795 Ry
     Harris-Foulkes estimate   =    -106.72441206 Ry
     estimated scf accuracy    <       0.00047188 Ry

     iteration # 24     ecut=    25.00 Ry     beta=0.30
     Davidson diagonalization with overlap
     ethr =  7.05E-07,  avg # of iterations =  1.0

     negative rho (up, down):  0.246E-01 0.000E+00

     total cpu time spent up to now is     31.28 secs

     total energy              =    -106.72440580 Ry
     Harris-Foulkes estimate   =    -106.72440571 Ry
     estimated scf accuracy    <       0.00000224 Ry

     iteration # 25     ecut=    25.00 Ry     beta=0.30
     Davidson diagonalization with overlap
     ethr =  8.98E-09,  avg # of iterations =  3.0

     negative rho (up, down):  0.246E-01 0.000E+00

     total cpu time spent up to now is     32.64 secs

     total energy              =    -106.72440563 Ry
     Harris-Foulkes estimate   =    -106.72440585 Ry
     estimated scf accuracy    <       0.00000684 Ry

     iteration # 26     ecut=    25.00 Ry     beta=0.30
     Davidson diagonalization with overlap
     ethr =  8.98E-09,  avg # of iterations =  1.0

     negative rho (up, down):  0.246E-01 0.000E+00

     total cpu time spent up to now is     33.69 secs

     total energy              =    -106.72440576 Ry
     Harris-Foulkes estimate   =    -106.72440576 Ry
     estimated scf accuracy    <       0.00000015 Ry

     iteration # 27     ecut=    25.00 Ry     beta=0.30
     Davidson diagonalization with overlap
     ethr =  6.13E-10,  avg # of iterations =  1.0

     negative rho (up, down):  0.247E-01 0.000E+00

     total cpu time spent up to now is     34.74 secs

     total energy              =    -106.72440578 Ry
     Harris-Foulkes estimate   =    -106.72440577 Ry
     estimated scf accuracy    <       0.00000003 Ry

     iteration # 28     ecut=    25.00 Ry     beta=0.30
     Davidson diagonalization with overlap
     ethr =  1.33E-10,  avg # of iterations =  3.0

     negative rho (up, down):  0.246E-01 0.000E+00

     total cpu time spent up to now is     35.08 secs

     End of self-consistent calculation

          k = 0.0000 0.0000 0.0000 ( 28595 PWs)   bands (ev):

   -32.7592 -26.7699 -20.2320 -19.1532 -15.8898 -15.1813 -12.6156 -11.2161
   -10.9071 -10.5495  -9.2748  -7.4470  -2.2306  -2.2075  -0.6428  -0.0865

     the Fermi energy is    -2.2487 ev

!    total energy              =    -106.72440581 Ry
     Harris-Foulkes estimate   =    -106.72440578 Ry
     estimated scf accuracy    <          1.9E-09 Ry

     The total energy is the sum of the following terms:

     one-electron contribution =    -311.35265318 Ry
     hartree contribution      =     158.22529804 Ry
     xc contribution           =     -25.77923910 Ry
     ewald contribution        =      72.18632661 Ry
     smearing contrib. (-TS)   =      -0.00413817 Ry

     convergence has been achieved in  28 iterations
 forces --- starting time for forces:
     forces       :      0.00s CPU      0.00s WALL (       1 calls)

     Forces acting on atoms (Ry/au):

 forces --- nonlocal contribution:
     forces       :      0.07s CPU      0.07s WALL (       2 calls)
 forces --- local contribution:
     forces       :      0.08s CPU      0.08s WALL (       3 calls)
 forces --- NLCC contribution:
     forces       :      0.08s CPU      0.08s WALL (       4 calls)
 forces --- Hubbard contribution:
     forces       :      0.08s CPU      0.08s WALL (       5 calls)
 forces --- ionic contribution:
     forces       :      0.08s CPU      0.08s WALL (       6 calls)
 forces --- SCF contribution:
     forces       :      0.38s CPU      0.38s WALL (       7 calls)
     atom   1 type  4   force =     0.18314975   -0.11762341   -0.00019964
     atom   2 type  3   force =     0.02020221   -0.05582118   -0.00023279
     atom   3 type  1   force =     0.01596749   -0.00167951    0.00043471
     atom   4 type  1   force =    -0.06903979    0.29715470    0.00060057
     atom   5 type  2   force =    -0.01672995   -0.01160085   -0.00679245
     atom   6 type  2   force =    -0.01666975   -0.01145265    0.00635766
     atom   7 type  2   force =     0.00693465    0.00756077   -0.00004276
     atom   8 type  2   force =    -0.12381461   -0.10653787   -0.00012530

     Total force =     0.414638     Total SCF correction =     0.000044


     entering subroutine stress ...

          total   stress  (Ry/bohr**3)                   (kbar)     P=   -1.14
  -0.00000871   0.00000368   0.00000001         -1.28      0.54      0.00
   0.00000368   0.00001566   0.00000006          0.54      2.30      0.01
   0.00000001   0.00000006  -0.00003029          0.00      0.01     -4.46


     Writing output data file acetic.O1-XCH.save
 
     init_run     :      1.69s CPU      1.87s WALL (       1 calls)
     electrons    :     31.10s CPU     33.08s WALL (       1 calls)
     forces       :      0.38s CPU      0.38s WALL (       8 calls)
     stress       :      0.73s CPU      0.73s WALL (       1 calls)

     Called by init_run:
     wfcinit      :      0.05s CPU      0.05s WALL (       1 calls)
     potinit      :      0.42s CPU      0.45s WALL (       1 calls)

     Called by electrons:
     c_bands      :      2.04s CPU      2.10s WALL (      28 calls)
     sum_band     :      2.12s CPU      2.14s WALL (      28 calls)
     v_of_rho     :      1.67s CPU      1.73s WALL (      29 calls)
     newd         :      2.39s CPU      2.39s WALL (      29 calls)
     mix_rho      :     20.47s CPU     20.54s WALL (      28 calls)

     Called by c_bands:
     init_us_2    :      0.02s CPU      0.03s WALL (      57 calls)
     cegterg      :      2.00s CPU      2.05s WALL (      28 calls)

     Called by *egterg:
     h_psi        :      1.61s CPU      1.62s WALL (      90 calls)
     s_psi        :      0.01s CPU      0.01s WALL (      90 calls)
     g_psi        :      0.00s CPU      0.00s WALL (      61 calls)
     cdiaghg      :      0.29s CPU      0.33s WALL (      89 calls)

     Called by h_psi:
     add_vuspsi   :      0.01s CPU      0.01s WALL (      90 calls)

     General routines
     calbec       :      0.03s CPU      0.03s WALL (     120 calls)
     fft          :      2.47s CPU      2.66s WALL (     468 calls)
     ffts         :     14.77s CPU     14.82s WALL (   13968 calls)
     fftw         :      1.84s CPU      1.85s WALL (    2398 calls)
     interpolate  :      0.38s CPU      0.40s WALL (      57 calls)
     davcio       :      0.00s CPU      0.01s WALL (      29 calls)
 
     Parallel routines
     fft_scatter  :      8.87s CPU      9.09s WALL (   16834 calls)
 
     PWSCF        :    34.29s CPU        36.68s WALL

 
   This run was terminated on:  18:29:27   4Sep2018            

=------------------------------------------------------------------------------=
   JOB DONE.
=------------------------------------------------------------------------------=
